<?xml version="1.0"?>
<!-- Time =  6.0061829269476874E-01s -->
<VTKFile type="PolyData" version="0.1" byte_order="LittleEndian">
<PolyData>
<Piece NumberOfPoints="0000028800" NumberOfVerts="0" NumberOfLines="0" NumberOfStrips="0" NumberOfPolys="0">
<Points>
<DataArray type="Float32" Name="Position" NumberOfComponents="3" format="ascii">
  8.122423E-01   1.977976E-01   5.705025E-01   1.345767E+00   1.948926E-01   4.840245E-01   1.918255E+00   1.999346E-01   2.233399E-01   3.310808E+00   1.991462E-01   1.998731E-01   3.541776E+00   2.001532E-01   5.350176E-01   5.067087E+00   1.989925E-01   5.423656E-01   6.181153E+00   1.999329E-01   8.568153E-01   6.477047E+00   2.180034E-01   1.126489E+00   7.176555E+00   2.648208E+00   6.479059E-01   4.329953E+00   1.515440E+01   4.539892E+00   3.760302E+00   1.360450E+01   6.210499E-01   5.575311E+00   1.539645E+01   4.026443E+00   6.087695E+00   1.447663E+01   2.796526E+00   5.437330E+00   1.513639E+01   2.802179E+00   5.356425E+00   1.301402E+01   2.919081E+00   7.597175E+00   1.587690E+01   4.194636E+00   1.052748E+01   1.488301E+01   4.194360E+00   1.006095E+01   1.401909E+01   3.727787E+00   4.271576E+00   1.428516E+01   4.012726E+00   1.183359E+01   1.281826E+01   2.555271E+00   3.844270E+00   1.060242E+01   4.552773E+00   6.907871E+00   6.376599E+00   1.972919E+00   7.094842E+00   8.060621E+00   1.984355E+00   9.090302E+00   1.997502E-01   9.319719E-01   9.481292E+00   1.995531E-01   1.016417E+00   1.202848E+01   1.971614E-01   5.575673E-01   1.274664E+01   1.959261E-01   1.995033E-01   1.292957E+01   1.983666E-01   5.546823E-01   1.360203E+01   1.993880E-01   5.130804E-01   1.400454E+01   1.988941E-01   8.753898E-01   2.053908E-01   1.959431E-01   9.979973E-01   1.125139E+00   1.976776E-01   9.424235E-01   2.256208E+00   1.975088E-01   1.181093E+00   2.586391E+00   1.998996E-01   9.057940E-01   3.038858E+00   1.991006E-01   9.432732E-01   3.827015E+00   1.982261E-01   8.292947E-01   5.794746E+00   1.987396E-01   5.687625E-01   5.573545E+00   1.995267E-01   9.017920E-01   6.610077E+00   2.086169E-01   2.005443E-01   6.930448E+00   1.287671E+01   1.650049E+00   6.948001E+00   8.928558E+00   1.816761E+00   3.559859E-01   1.006508E+01   3.612937E+00   4.653357E+00   1.499274E+01   4.329352E+00   5.758715E+00   1.421260E+01   4.327592E+00   7.447027E+00   1.392196E+01   3.232574E+00   6.164812E+00   1.537931E+01   3.478081E+00   5.210212E+00   1.495493E+01   3.936958E+00   6.854389E+00   1.363292E+01   3.398849E+00   1.053747E+01   1.358426E+01   3.050678E+00   6.108909E+00   1.356242E+01   3.495578E+00   1.265346E+01   1.158960E+01   3.878555E+00   2.908215E+00   1.001534E+01   2.555656E+00   8.328829E+00   4.258018E-01   2.003347E-01   8.228927E+00   6.042869E-01   1.474862E+00   1.019351E+01   1.970961E-01   1.988023E-01   1.074178E+01   2.002500E-01   1.259552E+00   1.191616E+01   1.967488E-01   1.145794E+00   1.297198E+01   1.995301E-01   9.521184E-01   1.335016E+01   1.982466E-01   8.233150E-01   1.392883E+01   4.266396E-01   5.419579E-01   1.467700E+01   1.999197E-01   6.367817E-01   1.982666E-01   1.970860E-01   5.980260E-01   1.914295E+00   1.999082E-01   8.867348E-01   2.207636E+00   1.956743E-01   5.143648E-01   2.573739E+00   1.978930E-01   1.985663E-01   2.912189E+00   1.983312E-01   5.647861E-01   4.659813E+00   1.980909E-01   2.000042E-01   6.121267E+00   1.997355E-01   2.001797E-01   6.709462E+00   8.574156E+00   1.988684E+00   3.329289E+00   1.284066E+01   1.914048E+00   4.246233E+00   1.132048E+01   4.521317E+00   3.034943E+00   1.056170E+01   2.043869E+00   2.922533E+00   1.363876E+01   3.706955E+00   2.576986E+00   1.026163E+01   4.246804E+00   6.329511E+00   1.496615E+01   3.377176E+00   3.653504E+00   1.198733E+01   4.091572E+00   4.247876E+00   1.258473E+01   3.379447E+00   6.191578E+00   1.499747E+01   2.973668E+00   5.048644E+00   1.350396E+01   3.732316E+00   1.106449E+01   1.035835E+01   3.763358E+00   1.207345E+01   1.099495E+01   1.453286E+00   5.839597E+00   1.407451E+01   3.918913E+00   7.318491E+00   1.320812E+01   1.568789E+00   7.915080E+00   1.076761E+01   1.607581E+00   9.068636E+00   1.995184E-01   2.006213E-01   1.042287E+01   1.986112E-01   5.438893E-01   1.123876E+01   1.971940E-01   5.368893E-01   1.216556E+01   3.057512E-01   1.988576E-01   1.244594E+01   1.995896E-01   4.629668E-01   1.335651E+01   1.981079E-01   1.980866E-01   1.425584E+01   1.988104E-01   5.644638E-01   1.999025E-01   1.997659E-01   1.990260E-01   6.668916E-01   1.966938E-01   1.987411E-01   1.559058E+00   3.740669E-01   1.983796E-01   2.249063E+00   4.300663E-01   1.959452E-01   2.942039E+00   3.528639E-01   1.982821E-01   3.763100E+00   1.999842E-01   2.014723E-01   5.358462E+00   1.986747E-01   1.998932E-01   6.860570E+00   7.244814E-01   1.173442E+00   7.355614E+00   3.380505E+00   1.149068E+00   1.117948E+01   1.626616E+01   2.143566E+00   8.116258E+00   1.368330E+01   7.729166E-01   6.605263E+00   1.163720E+01   2.122377E+00   6.926367E+00   1.611061E+01   3.344049E+00   4.343519E+00   1.470854E+01   4.345997E+00   6.529104E+00   1.016692E+01   2.819821E+00   3.703277E+00   1.177369E+01   2.387456E+00   1.448393E+01   1.045298E+01   2.929203E+00   8.754822E+00   1.289953E+01   4.098919E+00   1.340458E+01   1.270954E+01   2.616012E+00   1.035928E+01   1.119728E+01   3.293576E+00   2.894560E+00   1.052150E+01   4.165001E+00   1.047736E+01   1.050995E+01   1.927046E+00   1.127388E+01   9.633234E+00   2.441327E+00   7.830559E+00   1.416277E+01   1.641769E+00   7.924737E+00   1.110923E+01   1.367032E+00   9.333967E+00   2.001314E-01   5.917038E-01   1.102426E+01   1.977347E-01   1.994777E-01   1.178083E+01   1.983895E-01   1.996516E-01   1.250669E+01   5.128979E-01   1.984352E-01   1.301420E+01   4.901371E-01   1.986910E-01   1.399605E+01   1.961741E-01   2.171547E-01   1.476868E+01   1.970169E-01   1.976723E-01   1.095613E+00   4.728658E-01   6.214566E-01   1.066044E+00   1.996808E-01   1.994218E-01   1.901189E+00   4.450681E-01   5.656143E-01   2.558161E+00   3.828560E-01   5.513633E-01   4.014571E+00   3.098450E-01   4.945402E-01   4.339162E+00   1.988557E-01   7.010487E-01   5.876008E+00   4.583259E-01   8.610049E-01   7.417939E+00   7.811655E+00   1.914467E+00   7.695741E+00   8.931169E+00   1.428802E+00   3.649528E+00   1.242078E+01   4.203229E+00   1.154053E+01   1.186269E+01   2.247969E+00   6.291752E+00   1.486910E+01   2.453100E+00   5.439285E+00   1.430937E+01   2.635610E+00   7.029839E+00   1.452020E+01   4.027081E+00   4.658900E+00   1.463248E+01   3.353786E+00   4.749541E+00   1.553662E+01   4.628701E+00   1.051618E+01   1.448352E+01   3.884475E+00   5.425696E+00   1.298221E+01   3.708431E+00   9.932983E+00   1.363677E+01   3.644710E+00   1.017200E+01   1.370494E+01   3.992316E+00   1.135666E+01   9.319793E+00   2.840166E+00   6.320004E+00   1.471009E+01   9.582416E-01   7.813424E+00   1.463039E+01   1.873272E+00   7.308455E+00   1.336148E+01   2.148434E+00   8.521411E+00   2.038546E-01   6.266458E-01   9.733685E+00   1.990106E-01   6.046033E-01   1.069881E+01   1.980601E-01   8.504635E-01   1.162160E+01   3.599837E-01   5.284728E-01   1.262178E+01   3.189678E-01   8.011249E-01   1.367788E+01   4.348691E-01   1.988315E-01   1.438212E+01   2.963431E-01   1.989461E-01   1.990826E-01   5.811825E-01   9.045467E-01   5.111827E-01   4.005168E-01   7.341506E-01   1.516316E+00   2.026515E-01   8.458790E-01   2.641871E+00   5.993921E-01   8.747514E-01   3.229064E+00   4.186593E-01   6.685157E-01   4.690307E+00   3.402454E-01   5.722327E-01   5.333377E+00   4.994911E-01   1.010798E+00   6.887262E+00   3.170859E+00   1.287974E+00   7.816276E+00   1.044772E+01   1.351419E+00   4.134054E+00   1.421329E+01   1.804009E+00   1.086430E+00   1.094883E+01   4.473266E-01   5.086675E+00   1.283018E+01   3.175766E+00   5.639823E+00   1.327132E+01   2.238905E+00   5.759789E+00   1.497718E+01   3.250183E+00   5.894015E+00   1.564662E+01   2.710474E+00   5.399062E+00   1.443811E+01   3.294237E+00   1.024788E+01   1.355619E+01   1.777898E+00   1.188409E+01   1.402971E+01   4.049982E+00   1.188752E+01   1.443870E+01   4.749810E+00   3.631879E+00   1.494314E+01   3.349639E+00   8.361045E+00   1.157646E+01   4.503338E-01   2.058162E+00   1.046079E+01   3.197400E+00   7.069821E+00   8.467293E+00   1.820822E+00   7.796244E+00   1.550927E+00   1.220283E+00   8.668330E+00   2.046530E-01   2.055274E-01   9.327498E+00   5.414958E-01   8.776318E-01   1.106434E+01   3.600526E-01   8.571531E-01   1.180473E+01   4.589132E-01   8.684648E-01   1.445441E+01   5.404816E-01   6.251128E-01   1.439216E+01   5.345278E-01   1.150233E+00   1.479751E+01   8.724636E-01   6.112082E-01   8.326455E-01   5.360000E-01   3.277892E-01   1.209586E+00   5.727952E-01   1.999681E-01   1.515520E+00   5.457044E-01   5.559291E-01   2.623118E+00   5.939586E-01   2.000705E-01   3.535298E+00   5.295165E-01   1.999161E-01   4.260369E+00   1.987043E-01   1.995869E-01   5.747591E+00   3.422602E-01   1.992314E-01   7.352607E+00   1.210911E+01   1.854677E+00   1.844991E+00   9.862984E+00   3.275666E+00   5.423046E-01   1.253467E+01   4.997959E+00   1.047698E+01   1.540547E+01   1.681191E+00   5.199984E+00   1.265724E+01   2.071196E+00   4.093111E+00   1.112617E+01   3.561282E+00   4.708009E+00   1.685448E+01   4.302612E+00   2.215559E+00   1.271430E+01   3.073874E+00   1.031477E+01   1.413751E+01   3.439302E+00   1.000753E+01   1.499304E+01   2.419991E+00   9.187074E+00   1.285744E+01   2.704586E+00   4.221155E+00   1.449801E+01   3.654785E+00   1.149799E+01   1.179691E+01   3.413224E+00   3.431360E+00   1.208016E+01   1.668123E+00   1.145926E+01   1.203263E+01   1.753981E+00   7.325519E+00   9.608470E+00   1.965187E+00   7.926531E+00   1.207180E+01   1.655792E+00   7.378394E+00   4.833077E+00   1.506731E+00   9.686059E+00   1.996405E-01   1.998592E-01   1.140041E+01   3.335287E-01   1.981493E-01   1.177670E+01   5.971837E-01   1.996482E-01   1.359011E+01   6.430295E-01   5.274171E-01   1.405140E+01   5.895689E-01  
[...]
<PointData Scalars="Diameter" Vectors="Velocity">
<DataArray type="Float32" Name="Diameter" format="ascii">
  4.000000E-01   4.000000E-01   4.000000E-01   4.000000E-01   4.000000E-01   4.000000E-01   4.000000E-01   4.000000E-01   4.000000E-01   4.000000E-01   4.000000E-01   4.000000E-01   4.000000E-01   4.000000E-01   4.000000E-01   4.000000E-01   4.000000E-01   4.000000E-01   4.000000E-01   4.000000E-01   4.000000E-01   4.000000E-01   4.000000E-01   4.000000E-01   4.000000E-01   4.000000E-01   4.000000E-01   4.000000E-01   4.000000E-01   4.000000E-01   4.000000E-01   4.000000E-01   4.000000E-01   4.000000E-01   4.000000E-01   4.000000E-01   4.000000E-01   4.000000E-01   4.000000E-01   4.000000E-01   4.000000E-01   4.000000E-01   4.000000E-01   4.000000E-01   4.000000E-01   4.000000E-01   4.000000E-01   4.000000E-01   4.000000E-01   4.000000E-01   4.000000E-01   4.000000E-01   4.000000E-01   4.000000E-01   4.000000E-01   4.000000E-01   4.000000E-01   4.000000E-01   4.000000E-01   4.000000E-01   4.000000E-01   4.000000E-01   4.000000E-01   4.000000E-01   4.000000E-01   4.000000E-01   4.000000E-01   4.000000E-01   4.000000E-01   4.000000E-01   4.000000E-01   4.000000E-01   4.000000E-01   4.000000E-01   4.000000E-01   4.000000E-01   4.000000E-01   4.000000E-01   4.000000E-01   4.000000E-01   4.000000E-01   4.000000E-01   4.000000E-01   4.000000E-01   4.000000E-01   4.000000E-01   4.000000E-01   4.000000E-01   4.000000E-01   4.000000E-01   4.000000E-01   4.000000E-01   4.000000E-01   4.000000E-01   4.000000E-01   4.000000E-01   4.000000E-01   4.000000E-01   4.000000E-01   4.000000E-01   4.000000E-01   4.000000E-01   4.000000E-01   4.000000E-01   4.000000E-01   4.000000E-01   4.000000E-01   4.000000E-01   4.000000E-01   4.000000E-01   4.000000E-01   4.000000E-01   4.000000E-01   4.000000E-01   4.000000E-01   4.000000E-01   4.000000E-01   4.000000E-01   4.000000E-01   4.000000E-01   4.000000E-01   4.000000E-01   4.000000E-01   4.000000E-01   4.000000E-01   4.000000E-01   4.000000E-01   4.000000E-01   4.000000E-01   4.000000E-01   4.000000E-01   4.000000E-01   4.000000E-01   4.000000E-01   4.000000E-01   4.000000E-01   4.000000E-01   4.000000E-01   4.000000E-01   4.000000E-01   4.000000E-01   4.000000E-01   4.000000E-01   4.000000E-01   4.000000E-01   4.000000E-01   4.000000E-01   4.000000E-01   4.000000E-01   4.000000E-01   4.000000E-01   4.000000E-01   4.000000E-01   4.000000E-01   4.000000E-01   4.000000E-01   4.000000E-01   4.000000E-01   4.000000E-01   4.000000E-01   4.000000E-01   4.000000E-01   4.000000E-01   4.000000E-01   4.000000E-01   4.000000E-01   4.000000E-01   4.000000E-01   4.000000E-01   4.000000E-01   4.000000E-01   4.000000E-01   4.000000E-01   4.000000E-01   4.000000E-01   4.000000E-01   4.000000E-01   4.000000E-01   4.000000E-01   4.000000E-01   4.000000E-01   4.000000E-01   4.000000E-01   4.000000E-01   4.000000E-01   4.000000E-01   4.000000E-01   4.000000E-01   4.000000E-01   4.000000E-01   4.000000E-01   4.000000E-01   4.000000E-01   4.000000E-01   4.000000E-01   4.000000E-01   4.000000E-01   4.000000E-01   4.000000E-01   4.000000E-01   4.000000E-01   4.000000E-01   4.000000E-01   4.000000E-01   4.000000E-01   4.000000E-01   4.000000E-01   4.000000E-01   4.000000E-01   4.000000E-01   4.000000E-01   4.000000E-01   4.000000E-01   4.000000E-01   4.000000E-01   4.000000E-01   4.000000E-01   4.000000E-01   4.000000E-01   4.000000E-01   4.000000E-01   4.000000E-01   4.000000E-01   4.000000E-01   4.000000E-01   4.000000E-01   4.000000E-01   4.000000E-01   4.000000E-01   4.000000E-01   4.000000E-01   4.000000E-01   4.000000E-01   4.000000E-01   4.000000E-01   4.000000E-01   4.000000E-01   4.000000E-01   4.000000E-01   4.000000E-01   4.000000E-01   4.000000E-01   4.000000E-01   4.000000E-01   4.000000E-01   4.000000E-01   4.000000E-01   4.000000E-01   4.000000E-01   4.000000E-01   4.000000E-01   4.000000E-01   4.000000E-01   4.000000E-01   4.000000E-01   4.000000E-01   4.000000E-01   4.000000E-01   4.000000E-01   4.000000E-01   4.000000E-01   4.000000E-01   4.000000E-01   4.000000E-01   4.000000E-01   4.000000E-01   4.000000E-01   4.000000E-01   4.000000E-01   4.000000E-01   4.000000E-01   4.000000E-01   4.000000E-01   4.000000E-01   4.000000E-01   4.000000E-01   4.000000E-01   4.000000E-01   4.000000E-01   4.000000E-01   4.000000E-01   4.000000E-01   4.000000E-01   4.000000E-01   4.000000E-01   4.000000E-01   4.000000E-01   4.000000E-01   4.000000E-01   4.000000E-01   4.000000E-01   4.000000E-01   4.000000E-01   4.000000E-01   4.000000E-01   4.000000E-01   4.000000E-01   4.000000E-01   4.000000E-01   4.000000E-01   4.000000E-01   4.000000E-01   4.000000E-01   4.000000E-01   4.000000E-01   4.000000E-01   4.000000E-01   4.000000E-01   4.000000E-01   4.000000E-01   4.000000E-01   4.000000E-01   4.000000E-01   4.000000E-01   4.000000E-01   4.000000E-01   4.000000E-01   4.000000E-01   4.000000E-01   4.000000E-01   4.000000E-01   4.000000E-01   4.000000E-01   4.000000E-01   4.000000E-01   4.000000E-01   4.000000E-01   4.000000E-01   4.000000E-01   4.000000E-01   4.000000E-01   4.000000E-01   4.000000E-01   4.000000E-01   4.000000E-01   4.000000E-01   4.000000E-01   4.000000E-01   4.000000E-01   4.000000E-01   4.000000E-01   4.000000E-01   4.000000E-01   4.000000E-01   4.000000E-01   4.000000E-01   4.000000E-01   4.000000E-01   4.000000E-01   4.000000E-01   4.000000E-01   4.000000E-01   4.000000E-01   4.000000E-01   4.000000E-01   4.000000E-01   4.000000E-01   4.000000E-01   4.000000E-01   4.000000E-01   4.000000E-01   4.000000E-01   4.000000E-01   4.000000E-01   4.000000E-01   4.000000E-01   4.000000E-01   4.000000E-01   4.000000E-01   4.000000E-01   4.000000E-01   4.000000E-01   4.000000E-01   4.000000E-01   4.000000E-01   4.000000E-01   4.000000E-01   4.000000E-01   4.000000E-01   4.000000E-01   4.000000E-01   4.000000E-01   4.000000E-01   4.000000E-01   4.000000E-01   4.000000E-01   4.000000E-01   4.000000E-01   4.000000E-01   4.000000E-01   4.000000E-01   4.000000E-01   4.000000E-01   4.000000E-01   4.000000E-01   4.000000E-01   4.000000E-01   4.000000E-01   4.000000E-01   4.000000E-01   4.000000E-01   4.000000E-01   4.000000E-01   4.000000E-01   4.000000E-01   4.000000E-01   4.000000E-01   4.000000E-01   4.000000E-01   4.000000E-01   4.000000E-01   4.000000E-01   4.000000E-01   4.000000E-01   4.000000E-01   4.000000E-01   4.000000E-01   4.000000E-01   4.000000E-01   4.000000E-01   4.000000E-01   4.000000E-01   4.000000E-01   4.000000E-01   4.000000E-01   4.000000E-01   4.000000E-01   4.000000E-01   4.000000E-01   4.000000E-01   4.000000E-01   4.000000E-01   4.000000E-01   4.000000E-01   4.000000E-01   4.000000E-01   4.000000E-01   4.000000E-01   4.000000E-01   4.000000E-01   4.000000E-01   4.000000E-01   4.000000E-01   4.000000E-01   4.000000E-01   4.000000E-01   4.000000E-01   4.000000E-01   4.000000E-01   4.000000E-01   4.000000E-01   4.000000E-01   4.000000E-01   4.000000E-01   4.000000E-01   4.000000E-01   4.000000E-01   4.000000E-01   4.000000E-01   4.000000E-01   4.000000E-01   4.000000E-01   4.000000E-01   4.000000E-01   4.000000E-01   4.000000E-01   4.000000E-01   4.000000E-01   4.000000E-01   4.000000E-01   4.000000E-01   4.000000E-01   4.000000E-01   4.000000E-01   4.000000E-01   4.000000E-01   4.000000E-01   4.000000E-01   4.000000E-01   4.000000E-01   4.000000E-01   4.000000E-01   4.000000E-01   4.000000E-01   4.000000E-01   4.000000E-01   4.000000E-01   4.000000E-01   4.000000E-01   4.000000E-01   4.000000E-01   4.000000E-01   4.000000E-01   4.000000E-01   4.000000E-01   4.000000E-01   4.000000E-01   4.000000E-01   4.000000E-01   4.000000E-01   4.000000E-01   4.000000E-01   4.000000E-01   4.000000E-01   4.000000E-01   4.000000E-01   4.000000E-01   4.000000E-01   4.000000E-01   4.000000E-01   4.000000E-01   4.000000E-01   4.000000E-01   4.000000E-01   4.000000E-01   4.000000E-01   4.000000E-01   4.000000E-01   4.000000E-01   4.000000E-01   4.000000E-01   4.000000E-01   4.000000E-01   4.000000E-01   4.000000E-01   4.000000E-01   4.000000E-01   4.000000E-01   4.000000E-01   4.000000E-01   4.000000E-01   4.000000E-01   4.000000E-01   4.000000E-01   4.000000E-01   4.000000E-01   4.000000E-01   4.000000E-01   4.000000E-01   4.000000E-01   4.000000E-01   4.000000E-01   4.000000E-01   4.000000E-01   4.000000E-01   4.000000E-01   4.000000E-01   4.000000E-01   4.000000E-01   4.000000E-01   4.000000E-01   4.000000E-01   4.000000E-01   4.000000E-01   4.000000E-01   4.000000E-01   4.000000E-01   4.000000E-01   4.000000E-01   4.000000E-01   4.000000E-01   4.000000E-01   4.000000E-01   4.000000E-01   4.000000E-01   4.000000E-01   4.000000E-01   4.000000E-01   4.000000E-01   4.000000E-01   4.000000E-01   4.000000E-01   4.000000E-01   4.000000E-01   4.000000E-01   4.000000E-01   4.000000E-01   4.000000E-01   4.000000E-01   4.000000E-01   4.000000E-01   4.000000E-01   4.000000E-01   4.000000E-01   4.000000E-01   4.000000E-01   4.000000E-01   4.000000E-01   4.000000E-01   4.000000E-01   4.000000E-01   4.000000E-01   4.000000E-01   4.000000E-01   4.000000E-01   4.000000E-01   4.000000E-01   4.000000E-01   4.000000E-01   4.000000E-01   4.000000E-01   4.000000E-01   4.000000E-01   4.000000E-01   4.000000E-01   4.000000E-01   4.000000E-01   4.000000E-01   4.000000E-01   4.000000E-01   4.000000E-01   4.000000E-01   4.000000E-01   4.000000E-01   4.000000E-01   4.000000E-01   4.000000E-01   4.000000E-01   4.000000E-01   4.000000E-01   4.000000E-01   4.000000E-01   4.000000E-01   4.000000E-01   4.000000E-01   4.000000E-01   4.000000E-01   4.000000E-01   4.000000E-01   4.000000E-01   4.000000E-01   4.000000E-01   4.000000E-01   4.000000E-01   4.000000E-01   4.000000E-01   4.000000E-01   4.000000E-01   4.000000E-01   4.000000E-01   4.000000E-01   4.000000E-01   4.000000E-01   4.000000E-01   4.000000E-01   4.000000E-01   4.000000E-01   4.000000E-01   4.000000E-01   4.000000E-01   4.000000E-01   4.000000E-01   4.000000E-01   4.000000E-01   4.000000E-01   4.000000E-01   4.000000E-01   4.000000E-01   4.000000E-01   4.000000E-01   4.000000E-01   4.000000E-01   4.000000E-01   4.000000E-01   4.000000E-01   4.000000E-01   4.000000E-01   4.000000E-01   4.000000E-01   4.000000E-01   4.000000E-01   4.000000E-01   4.000000E-01   4.000000E-01   4.000000E-01   4.000000E-01   4.000000E-01   4.000000E-01   4.000000E-01   4.000000E-01   4.000000E-01   4.000000E-01   4.000000E-01   4.000000E-01   4.000000E-01   4.000000E-01   4.000000E-01   4.000000E-01   4.000000E-01   4.000000E-01   4.000000E-01   4.000000E-01   4.000000E-01   4.000000E-01   4.000000E-01   4.000000E-01   4.000000E-01   4.000000E-01   4.000000E-01   4.000000E-01   4.000000E-01   4.000000E-01   4.000000E-01   4.000000E-01   4.000000E-01   4.000000E-01   4.000000E-01   4.000000E-01   4.000000E-01   4.000000E-01   4.000000E-01   4.000000E-01   4.000000E-01   4.000000E-01   4.000000E-01   4.000000E-01   4.000000E-01   4.000000E-01   4.000000E-01   4.000000E-01   4.000000E-01   4.000000E-01   4.000000E-01   4.000000E-01   4.000000E-01   4.000000E-01   4.000000E-01   4.000000E-01   4.000000E-01   4.000000E-01   4.000000E-01   4.000000E-01   4.000000E-01   4.000000E-01   4.000000E-01   4.000000E-01   4.000000E-01   4.000000E-01   4.000000E-01   4.000000E-01   4.000000E-01   4.000000E-01   4.000000E-01   4.000000E-01   4.000000E-01   4.000000E-01   4.000000E-01   4.000000E-01   4.000000E-01   4.000000E-01   4.000000E-01   4.000000E-01   4.000000E-01   4.000000E-01   4.000000E-01   4.000000E-01   4.000000E-01   4.000000E-01   4.000000E-01   4.000000E-01   4.000000E-01   4.000000E-01   4.000000E-01   4.000000E-01   4.000000E-01   4.000000E-01   4.000000E-01   4.000000E-01   4.000000E-01   4.000000E-01   4.000000E-01   4.000000E-01   4.000000E-01   4.000000E-01   4.000000E-01   4.000000E-01   4.000000E-01   4.000000E-01   4.000000E-01   4.000000E-01   4.000000E-01   4.000000E-01   4.000000E-01   4.000000E-01   4.000000E-01   4.000000E-01   4.000000E-01   4.000000E-01   4.000000E-01   4.000000E-01   4.000000E-01   4.000000E-01   4.000000E-01   4.000000E-01   4.000000E-01   4.000000E-01   4.000000E-01   4.000000E-01   4.000000E-01   4.000000E-01   4.000000E-01   4.000000E-01   4.000000E-01   4.000000E-01   4.000000E-01   4.000000E-01   4.000000E-01   4.000000E-01   4.000000E-01   4.000000E-01   4.000000E-01   4.000000E-01   4.000000E-01   4.000000E-01   4.000000E-01   4.000000E-01   4.000000E-01   4.000000E-01   4.000000E-01   4.000000E-01   4.000000E-01   4.000000E-01   4.000000E-01   4.000000E-01   4.000000E-01   4.000000E-01   4.000000E-01   4.000000E-01   4.000000E-01   4.000000E-01   4.000000E-01   4.000000E-01   4.000000E-01   4.000000E-01   4.000000E-01   4.000000E-01   4.000000E-01   4.000000E-01   4.000000E-01   4.000000E-01   4.000000E-01   4.000000E-01   4.000000E-01   4.000000E-01   4.000000E-01   4.000000E-01   4.000000E-01   4.000000E-01   4.000000E-01   4.000000E-01   4.000000E-01   4.000000E-01   4.000000E-01   4.000000E-01   4.000000E-01   4.000000E-01   4.000000E-01   4.000000E-01   4.000000E-01   4.000000E-01   4.000000E-01   4.000000E-01   4.000000E-01   4.000000E-01   4.000000E-01   4.000000E-01   4.000000E-01   4.000000E-01   4.000000E-01   4.000000E-01   4.000000E-01   4.000000E-01   4.000000E-01   4.000000E-01   4.000000E-01   4.000000E-01   4.000000E-01   4.000000E-01   4.000000E-01   4.000000E-01   4.000000E-01   4.000000E-01   4.000000E-01   4.000000E-01   4.000000E-01   4.000000E-01   4.000000E-01   4.000000E-01   4.000000E-01   4.000000E-01   4.000000E-01   4.000000E-01   4.000000E-01   4.000000E-01   4.000000E-01   4.000000E-01   4.000000E-01   4.000000E-01   4.000000E-01   4.000000E-01   4.000000E-01   4.000000E-01   4.000000E-01   4.000000E-01   4.000000E-01   4.000000E-01   4.000000E-01   4.000000E-01   4.000000E-01   4.000000E-01   4.000000E-01   4.000000E-01   4.000000E-01   4.000000E-01   4.000000E-01   4.000000E-01   4.000000E-01   4.000000E-01   4.000000E-01   4.000000E-01   4.000000E-01   4.000000E-01   4.000000E-01   4.000000E-01   4.000000E-01   4.000000E-01   4.000000E-01   4.000000E-01   4.000000E-01   4.000000E-01   4.000000E-01   4.000000E-01   4.000000E-01   4.000000E-01   4.000000E-01   4.000000E-01   4.000000E-01   4.000000E-01   4.000000E-01   4.000000E-01   4.000000E-01   4.000000E-01   4.000000E-01   4.000000E-01   4.000000E-01   4.000000E-01   4.000000E-01   4.000000E-01   4.000000E-01   4.000000E-01   4.000000E-01   4.000000E-01   4.000000E-01   4.000000E-01   4.000000E-01   4.000000E-01   4.000000E-01   4.000000E-01   4.000000E-01   4.000000E-01   4.000000E-01   4.000000E-01   4.000000E-01   4.000000E-01   4.000000E-01   4.000000E-01   4.000000E-01   4.000000E-01   4.000000E-01   4.000000E-01   4.000000E-01   4.000000E-01   4.000000E-01   4.000000E-01   4.000000E-01   4.000000E-01   4.000000E-01   4.000000E-01   4.000000E-01   4.000000E-01   4.000000E-01   4.000000E-01   4.000000E-01   4.000000E-01   4.000000E-01   4.000000E-01   4.000000E-01   4.000000E-01   4.000000E-01   4.000000E-01   4.000000E-01   4.000000E-01   4.000000E-01   4.000000E-01   4.000000E-01   4.000000E-01   4.000000E-01   4.000000E-01   4.000000E-01   4.000000E-01   4.000000E-01   4.000000E-01   4.000000E-01   4.000000E-01   4.000000E-01   4.000000E-01   4.000000E-01   4.000000E-01   4.000000E-01   4.000000E-01   4.000000E-01   4.000000E-01   4.000000E-01   4.000000E-01   4.000000E-01   4.000000E-01   4.000000E-01   4.000000E-01   4.000000E-01   4.000000E-01   4.000000E-01   4.000000E-01   4.000000E-01   4.000000E-01   4.000000E-01   4.000000E-01   4.000000E-01   4.000000E-01   4.000000E-01   4.000000E-01   4.000000E-01   4.000000E-01   4.000000E-01   4.000000E-01   4.000000E-01   4.000000E-01   4.000000E-01   4.000000E-01   4.000000E-01   4.000000E-01   4.000000E-01   4.000000E-01   4.000000E-01   4.000000E-01   4.000000E-01   4.000000E-01   4.000000E-01   4.000000E-01   4.000000E-01   4.000000E-01   4.000000E-01   4.000000E-01   4.000000E-01   4.000000E-01   4.000000E-01   4.000000E-01   4.000000E-01   4.000000E-01   4.000000E-01   4.000000E-01   4.000000E-01   4.000000E-01   4.000000E-01   4.000000E-01   4.000000E-01   4.000000E-01   4.000000E-01   4.000000E-01   4.000000E-01   4.000000E-01   4.000000E-01   4.000000E-01   4.000000E-01   4.000000E-01   4.000000E-01   4.000000E-01   4.000000E-01   4.000000E-01   4.000000E-01   4.000000E-01   4.000000E-01   4.000000E-01   4.000000E-01   4.000000E-01   4.000000E-01   4.000000E-01   4.000000E-01   4.000000E-01   4.000000E-01   4.000000E-01   4.000000E-01   4.000000E-01   4.000000E-01   4.000000E-01   4.000000E-01   4.000000E-01   4.000000E-01   4.000000E-01   4.000000E-01   4.000000E-01   4.000000E-01   4.000000E-01   4.000000E-01   4.000000E-01   4.000000E-01   4.000000E-01   4.000000E-01   4.000000E-01   4.000000E-01   4.000000E-01   4.000000E-01   4.000000E-01   4.000000E-01   4.000000E-01   4.000000E-01   4.000000E-01   4.000000E-01   4.000000E-01   4.000000E-01   4.000000E-01   4.000000E-01   4.000000E-01   4.000000E-01   4.000000E-01   4.000000E-01   4.000000E-01   4.000000E-01   4.000000E-01   4.000000E-01   4.000000E-01   4.000000E-01   4.000000E-01   4.000000E-01   4.000000E-01   4.000000E-01   4.000000E-01   4.000000E-01   4.000000E-01   4.000000E-01   4.000000E-01   4.000000E-01   4.000000E-01   4.000000E-01   4.000000E-01   4.000000E-01   4.000000E-01   4.000000E-01   4.000000E-01   4.000000E-01   4.000000E-01   4.000000E-01   4.000000E-01   4.000000E-01   4.000000E-01   4.000000E-01   4.000000E-01   4.000000E-01   4.000000E-01   4.000000E-01   4.000000E-01   4.000000E-01   4.000000E-01   4.000000E-01   4.000000E-01   4.000000E-01   4.000000E-01   4.000000E-01   4.000000E-01   4.000000E-01   4.000000E-01   4.000000E-01   4.000000E-01   4.000000E-01   4.000000E-01   4.000000E-01   4.000000E-01   4.000000E-01   4.000000E-01   4.000000E-01   4.000000E-01   4.000000E-01   4.000000E-01   4.000000E-01   4.000000E-01   4.000000E-01   4.000000E-01   4.000000E-01   4.000000E-01   4.000000E-01   4.000000E-01   4.000000E-01   4.000000E-01   4.000000E-01   4.000000E-01   4.000000E-01   4.000000E-01   4.000000E-01   4.000000E-01   4.000000E-01   4.000000E-01   4.000000E-01   4.000000E-01   4.000000E-01   4.000000E-01   4.000000E-01   4.000000E-01   4.000000E-01   4.000000E-01   4.000000E-01   4.000000E-01   4.000000E-01   4.000000E-01   4.000000E-01   4.000000E-01   4.000000E-01   4.000000E-01   4.000000E-01   4.000000E-01   4.000000E-01   4.000000E-01   4.000000E-01   4.000000E-01   4.000000E-01   4.000000E-01   4.000000E-01   4.000000E-01   4.000000E-01   4.000000E-01   4.000000E-01   4.000000E-01   4.000000E-01   4.000000E-01   4.000000E-01   4.000000E-01   4.000000E-01   4.000000E-01   4.000000E-01   4.000000E-01   4.000000E-01   4.000000E-01   4.000000E-01   4.000000E-01   4.000000E-01   4.000000E-01   4.000000E-01   4.000000E-01   4.000000E-01   4.000000E-01   4.000000E-01   4.000000E-01   4.000000E-01   4.000000E-01   4.000000E-01   4.000000E-01   4.000000E-01   4.000000E-01   4.000000E-01   4.000000E-01   4.000000E-01   4.000000E-01   4.000000E-01   4.000000E-01   4.000000E-01   4.000000E-01   4.000000E-01   4.000000E-01   4.000000E-01   4.000000E-01   4.000000E-01   4.000000E-01   4.000000E-01   4.000000E-01   4.000000E-01   4.000000E-01   4.000000E-01   4.000000E-01   4.000000E-01   4.000000E-01   4.000000E-01   4.000000E-01   4.000000E-01   4.000000E-01   4.000000E-01   4.000000E-01   4.000000E-01   4.000000E-01   4.000000E-01   4.000000E-01   4.000000E-01   4.000000E-01   4.000000E-01   4.000000E-01   4.000000E-01   4.000000E-01   4.000000E-01   4.000000E-01   4.000000E-01   4.000000E-01   4.000000E-01   4.000000E-01   4.000000E-01   4.000000E-01   4.000000E-01   4.000000E-01   4.000000E-01   4.000000E-01   4.000000E-01   4.000000E-01   4.000000E-01   4.000000E-01   4.000000E-01   4.000000E-01   4.000000E-01   4.000000E-01   4.000000E-01   4.000000E-01   4.000000E-01   4.000000E-01   4.000000E-01   4.000000E-01   4.000000E-01   4.000000E-01   4.000000E-01   4.000000E-01   4.000000E-01   4.000000E-01   