<?xml version="1.0"?>
<!-- Time =  1.1003182926947590E+00s -->
<VTKFile type="PolyData" version="0.1" byte_order="LittleEndian">
<PolyData>
<Piece NumberOfPoints="0000028800" NumberOfVerts="0" NumberOfLines="0" NumberOfStrips="0" NumberOfPolys="0">
<Points>
<DataArray type="Float32" Name="Position" NumberOfComponents="3" format="ascii">
  8.924499E-01   1.982674E-01   6.423127E-01   1.376019E+00   1.988487E-01   4.954443E-01   2.300765E+00   1.954261E-01   1.986945E-01   4.449075E+00   1.996476E-01   2.018729E-01   5.568556E+00   1.994626E-01   6.322535E-01   3.658967E+00   1.471896E+01   3.496380E+00   3.963104E+00   1.004717E+01   6.329821E-01   3.664090E+00   8.712433E+00   8.679699E-01   2.752960E+00   8.411429E+00   1.382341E+00   2.458544E+00   5.536954E+00   8.042163E-01   1.997593E-01   7.466243E+00   2.958467E+00   3.386286E+00   6.619285E+00   5.116475E-01   1.005510E+00   7.370284E+00   5.880118E-01   1.026001E+00   6.872524E+00   2.377612E+00   5.908751E+00   8.351122E+00   1.990545E-01   1.296218E+01   6.252734E+00   4.330021E+00   1.268749E+01   6.362224E+00   3.046327E+00   5.320584E-01   5.866134E+00   4.935686E+00   1.251605E+01   5.449872E+00   1.876228E+00   4.617039E+00   6.001631E+00   4.597001E+00   3.945214E+00   8.288403E+00   2.200532E+00   4.412240E+00   7.348730E+00   2.311027E+00   1.062629E+01   9.469406E+00   1.188267E+00   6.799232E+00   1.226834E+01   1.976774E-01   1.079500E+01   1.989047E-01   6.247502E-01   1.230215E+01   1.983687E-01   1.985168E-01   1.249801E+01   1.998795E-01   5.466387E-01   1.333539E+01   1.985273E-01   5.426004E-01   1.389256E+01   1.961268E-01   9.965189E-01   2.698057E-01   1.958852E-01   1.056365E+00   1.218096E+00   1.996396E-01   9.710404E-01   2.847528E+00   1.972411E-01   1.312391E+00   3.223388E+00   1.982414E-01   8.140216E-01   3.880585E+00   1.987975E-01   7.815477E-01   6.061104E+00   1.994906E-01   1.151266E+00   5.804121E+00   1.110092E+01   6.578436E-01   2.920799E+00   1.241208E+01   2.454416E+00   5.722454E+00   1.014736E+01   1.456779E+00   5.712184E+00   8.259604E+00   9.566723E-01   4.889272E+00   7.610997E+00   1.866180E+00   5.110572E-01   5.134136E+00   3.598194E+00   6.506820E-01   6.378531E+00   4.440830E+00   1.065310E+00   7.142319E+00   3.425642E+00   8.306804E+00   8.497955E+00   2.157353E-01   8.271296E-01   7.727366E+00   5.657783E-01   6.282076E-01   6.805340E+00   2.946242E+00   3.384872E+00   7.313701E+00   1.000607E+00   1.300316E+01   6.191592E+00   2.869531E+00   2.040580E+00   6.709953E+00   2.468342E+00   1.312956E+01   4.829556E+00   4.071864E+00   4.289599E+00   5.441447E+00   3.134517E+00   9.324527E+00   9.284513E+00   5.659946E-01   9.288954E+00   8.860134E+00   8.420879E-01   9.165710E+00   1.731751E+01   3.823934E+00   7.055430E+00   1.594114E+01   3.730549E+00   1.066086E+01   1.979091E-01   1.111202E+00   1.266682E+01   1.964516E-01   9.087064E-01   1.319810E+01   1.976398E-01   9.168475E-01   1.373674E+01   1.990013E-01   6.022075E-01   1.466516E+01   1.984773E-01   5.709988E-01   1.996924E-01   1.972936E-01   6.630694E-01   2.151166E+00   1.972634E-01   9.286240E-01   2.496379E+00   1.967648E-01   5.462638E-01   3.276590E+00   1.973305E-01   1.988789E-01   3.573843E+00   1.981811E-01   4.870141E-01   7.426546E+00   1.049487E+01   2.745340E+00   1.810505E+00   9.532658E+00   8.344369E-01   4.833605E+00   7.569681E+00   2.331733E+00   1.997161E-01   6.572607E+00   6.847206E-01   3.420058E+00   5.856343E+00   4.459421E+00   4.036329E+00   5.710236E+00   3.287200E+00   1.302438E+00   5.485502E+00   3.164223E+00   4.416324E+00   5.495036E+00   4.458741E+00   1.767008E+00   7.436538E+00   9.175099E-01   1.878287E+00   5.464486E+00   4.565366E+00   1.538626E+00   5.673042E+00   3.437017E+00   2.154721E+00   7.358638E+00   1.998924E-01   1.082370E+00   6.476656E+00   3.188644E+00   9.957344E+00   5.862399E+00   4.200774E+00   9.999638E+00   5.586539E+00   2.528337E+00   1.685528E+00   6.882154E+00   2.296067E+00   5.263344E+00   9.727750E+00   2.035358E+00   9.004981E+00   8.083230E+00   2.004415E+00   1.261555E+01   1.005099E+01   8.696050E-01   7.759638E+00   1.276464E+01   2.810639E+00   8.670010E+00   1.996636E-01   9.243842E-01   1.146745E+01   1.987295E-01   1.990874E-01   1.169164E+01   1.969643E-01   5.902798E-01   1.312993E+01   1.996680E-01   1.997269E-01   1.413223E+01   1.965870E-01   5.465617E-01   1.992893E-01   1.986994E-01   2.249512E-01   7.092074E-01   1.983564E-01   2.200427E-01   1.642276E+00   1.980702E-01   1.988190E-01   2.700514E+00   2.054909E-01   2.010959E-01   3.851400E+00   1.978549E-01   1.997633E-01   5.980028E+00   1.996448E-01   2.362915E-01   7.002250E+00   1.829889E+01   1.483681E+00   4.317975E+00   8.104179E+00   5.634593E-01   1.241873E+01   7.813457E+00   2.137724E+00   1.393876E+01   5.837703E+00   5.838246E-01   8.865542E+00   8.863250E+00   1.865131E+00   5.477955E+00   6.869616E+00   5.797487E-01   4.668156E+00   7.394866E+00   8.739803E-01   8.065739E-01   6.105328E+00   4.687081E+00   3.104848E+00   6.801448E+00   2.818295E+00   3.849831E+00   5.309268E+00   3.292063E+00   1.327605E+01   5.385918E+00   2.499689E+00   1.235961E+01   6.961954E+00   3.992949E+00   1.480039E+01   5.513740E+00   2.693828E+00   1.087256E+01   5.743821E+00   3.565089E+00   3.812068E+00   5.218755E+00   4.475737E+00   1.140285E+01   5.471801E+00   2.061645E+00   8.975296E+00   8.488974E+00   3.465990E+00   7.272163E+00   7.424484E+00   2.101562E-01   1.038622E+01   9.165361E+00   3.334309E+00   9.878469E+00   1.243675E+01   6.334249E-01   8.214145E+00   3.166219E-01   2.040295E-01   1.042026E+01   1.984282E-01   2.031757E-01   1.186708E+01   1.978758E-01   1.991026E-01   1.273021E+01   1.987314E-01   2.019330E-01   1.393615E+01   1.975206E-01   1.990788E-01   1.480103E+01   1.950741E-01   1.961451E-01   1.171374E+00   4.798862E-01   6.896405E-01   1.108210E+00   1.977608E-01   1.989992E-01   2.132640E+00   3.621240E-01   5.637985E-01   2.945258E+00   1.999578E-01   5.241971E-01   6.838542E+00   8.446515E-01   7.492463E-01   6.991949E+00   1.417040E+01   3.300835E+00   3.401570E+00   1.030435E+01   9.485438E-01   9.778587E+00   8.180271E+00   9.076542E-01   1.139859E+01   8.490117E+00   3.869795E+00   1.217411E+01   4.980285E+00   2.832289E+00   1.475091E+00   6.947686E+00   1.993323E-01   1.230852E+00   6.720667E+00   1.446244E+00   2.670445E+00   7.990051E+00   9.321423E-01   1.085884E+00   6.521345E+00   2.560957E+00   1.335050E+00   6.453687E+00   4.743896E+00   1.402392E+01   6.077467E+00   3.204458E+00   1.792899E+00   6.553548E+00   2.740144E+00   1.332823E+01   6.405276E+00   2.777566E+00   1.365716E+01   6.474299E+00   3.045208E+00   8.698773E+00   1.031149E+01   3.815653E+00   4.569323E+00   6.056701E+00   2.006722E-01   9.908928E+00   1.055135E+01   1.997063E+00   4.977119E+00   1.053202E+01   2.011187E+00   1.226621E+01   8.528795E+00   5.632869E-01   7.006317E+00   1.130898E+01   8.750639E-01   7.007700E+00   1.516256E+01   4.087665E+00   9.756721E+00   1.987723E-01   6.085680E-01   1.224001E+01   1.966465E-01   9.006931E-01   1.353706E+01   2.022554E-01   1.987667E-01   1.439889E+01   1.981710E-01   2.252530E-01   2.430317E-01   5.616866E-01   9.027834E-01   5.507132E-01   3.258074E-01   8.045417E-01   1.602813E+00   1.970167E-01   8.244272E-01   3.553771E+00   4.309912E-01   8.097449E-01   4.166990E+00   1.998791E-01   5.019662E-01   6.699864E+00   1.251270E+01   3.421278E+00   1.522497E+00   1.040786E+01   1.236884E+00   4.077993E+00   8.473504E+00   1.549053E+00   1.135317E+01   8.729355E+00   3.042055E+00   1.480389E+00   5.956325E+00   1.996518E-01   2.838706E+00   5.155946E+00   5.328487E-01   1.924160E+00   6.243583E+00   2.509338E+00   1.031458E+00   7.040055E+00   1.311822E+00   5.638449E-01   8.574823E+00   2.068288E-01   2.159940E+00   6.881960E+00   1.995259E-01   1.991511E-01   7.250056E+00   1.525165E+00   1.424225E+01   6.133809E+00   5.260734E-01   1.345664E+01   5.317203E+00   3.633168E+00   1.294722E+01   5.454243E+00   4.599607E+00   1.120864E+00   5.670277E+00   4.116519E+00   8.480924E+00   5.981660E+00   5.037280E-01   2.799897E+00   5.169630E+00   3.134162E+00   4.893175E+00   7.266492E+00   2.077496E+00   1.204448E+01   7.693156E+00   2.271078E+00   6.005445E+00   1.019301E+01   8.265153E-01   1.044793E+01   9.665618E+00   2.561214E-01   7.618935E+00   3.824524E+00   2.045004E+00   1.004758E+01   1.998790E-01   8.913861E-01   1.439725E+01   4.925872E-01   5.529061E-01   1.428734E+01   4.411916E-01   1.171512E+00   1.459803E+01   8.349077E-01   5.616487E-01   9.194369E-01   4.979309E-01   3.802099E-01   1.374924E+00   4.943082E-01   1.987960E-01   1.738595E+00   4.152416E-01   5.204490E-01   3.563569E+00   4.741697E-01   1.992263E-01   5.123679E+00   1.988213E-01   2.007614E-01   7.163295E+00   1.255712E+00   5.982173E-01   4.741067E+00   1.280665E+01   2.554905E+00   6.636032E+00   1.066335E+01   1.225833E+00   4.078089E+00   5.169166E+00   3.588035E+00   1.401108E+01   6.121256E+00   1.999680E-01   1.452150E+00   6.162026E+00   1.594878E+00   3.037860E+00   5.674516E+00   4.214264E+00   6.997648E-01   6.756858E+00   4.315932E+00   2.928420E+00   5.246056E+00   3.505279E+00   1.366204E+01   6.075483E+00   3.034297E+00   1.430604E+01   6.527544E+00   5.297919E-01   1.381063E+01   6.478437E+00   1.524972E+00   4.130173E-01   5.879357E+00   2.746572E+00   1.312449E+01   5.094982E+00   3.620902E+00   2.462917E+00   5.464602E+00   1.914055E+00   1.197188E+01   5.362337E+00   3.022588E+00   1.096479E+01   8.263206E+00   6.846735E-01   9.995989E+00   8.740677E+00   2.348450E+00   3.131807E+00   7.677794E+00   2.382980E+00   5.001270E+00   1.769399E+01   2.604142E+00   9.413458E+00   1.985400E-01   2.366525E-01   9.811353E+00   1.997854E-01   1.998312E-01   1.354079E+01   5.407478E-01   5.390469E-01   1.408540E+01   5.659697E-01   1.996671E-01   1.480043E+01   5.355142E-01   3.946003E-01   4.542277E-01   5.039720E-01   1.996575E-01   7.257021E-01   7.959227E-01  
[...]
<PointData Scalars="Diameter" Vectors="Velocity">
<DataArray type="Float32" Name="Diameter" format="ascii">
  4.000000E-01   4.000000E-01   4.000000E-01   4.000000E-01   4.000000E-01   4.000000E-01   4.000000E-01   4.000000E-01   4.000000E-01   4.000000E-01   4.000000E-01   4.000000E-01   4.000000E-01   4.000000E-01   4.000000E-01   4.000000E-01   4.000000E-01   4.000000E-01   4.000000E-01   4.000000E-01   4.000000E-01   4.000000E-01   4.000000E-01   4.000000E-01   4.000000E-01   4.000000E-01   4.000000E-01   4.000000E-01   4.000000E-01   4.000000E-01   4.000000E-01   4.000000E-01   4.000000E-01   4.000000E-01   4.000000E-01   4.000000E-01   4.000000E-01   4.000000E-01   4.000000E-01   4.000000E-01   4.000000E-01   4.000000E-01   4.000000E-01   4.000000E-01   4.000000E-01   4.000000E-01   4.000000E-01   4.000000E-01   4.000000E-01   4.000000E-01   4.000000E-01   4.000000E-01   4.000000E-01   4.000000E-01   4.000000E-01   4.000000E-01   4.000000E-01   4.000000E-01   4.000000E-01   4.000000E-01   4.000000E-01   4.000000E-01   4.000000E-01   4.000000E-01   4.000000E-01   4.000000E-01   4.000000E-01   4.000000E-01   4.000000E-01   4.000000E-01   4.000000E-01   4.000000E-01   4.000000E-01   4.000000E-01   4.000000E-01   4.000000E-01   4.000000E-01   4.000000E-01   4.000000E-01   4.000000E-01   4.000000E-01   4.000000E-01   4.000000E-01   4.000000E-01   4.000000E-01   4.000000E-01   4.000000E-01   4.000000E-01   4.000000E-01   4.000000E-01   4.000000E-01   4.000000E-01   4.000000E-01   4.000000E-01   4.000000E-01   4.000000E-01   4.000000E-01   4.000000E-01   4.000000E-01   4.000000E-01   4.000000E-01   4.000000E-01   4.000000E-01   4.000000E-01   4.000000E-01   4.000000E-01   4.000000E-01   4.000000E-01   4.000000E-01   4.000000E-01   4.000000E-01   4.000000E-01   4.000000E-01   4.000000E-01   4.000000E-01   4.000000E-01   4.000000E-01   4.000000E-01   4.000000E-01   4.000000E-01   4.000000E-01   4.000000E-01   4.000000E-01   4.000000E-01   4.000000E-01   4.000000E-01   4.000000E-01   4.000000E-01   4.000000E-01   4.000000E-01   4.000000E-01   4.000000E-01   4.000000E-01   4.000000E-01   4.000000E-01   4.000000E-01   4.000000E-01   4.000000E-01   4.000000E-01   4.000000E-01   4.000000E-01   4.000000E-01   4.000000E-01   4.000000E-01   4.000000E-01   4.000000E-01   4.000000E-01   4.000000E-01   4.000000E-01   4.000000E-01   4.000000E-01   4.000000E-01   4.000000E-01   4.000000E-01   4.000000E-01   4.000000E-01   4.000000E-01   4.000000E-01   4.000000E-01   4.000000E-01   4.000000E-01   4.000000E-01   4.000000E-01   4.000000E-01   4.000000E-01   4.000000E-01   4.000000E-01   4.000000E-01   4.000000E-01   4.000000E-01   4.000000E-01   4.000000E-01   4.000000E-01   4.000000E-01   4.000000E-01   4.000000E-01   4.000000E-01   4.000000E-01   4.000000E-01   4.000000E-01   4.000000E-01   4.000000E-01   4.000000E-01   4.000000E-01   4.000000E-01   4.000000E-01   4.000000E-01   4.000000E-01   4.000000E-01   4.000000E-01   4.000000E-01   4.000000E-01   4.000000E-01   4.000000E-01   4.000000E-01   4.000000E-01   4.000000E-01   4.000000E-01   4.000000E-01   4.000000E-01   4.000000E-01   4.000000E-01   4.000000E-01   4.000000E-01   4.000000E-01   4.000000E-01   4.000000E-01   4.000000E-01   4.000000E-01   4.000000E-01   4.000000E-01   4.000000E-01   4.000000E-01   4.000000E-01   4.000000E-01   4.000000E-01   4.000000E-01   4.000000E-01   4.000000E-01   4.000000E-01   4.000000E-01   4.000000E-01   4.000000E-01   4.000000E-01   4.000000E-01   4.000000E-01   4.000000E-01   4.000000E-01   4.000000E-01   4.000000E-01   4.000000E-01   4.000000E-01   4.000000E-01   4.000000E-01   4.000000E-01   4.000000E-01   4.000000E-01   4.000000E-01   4.000000E-01   4.000000E-01   4.000000E-01   4.000000E-01   4.000000E-01   4.000000E-01   4.000000E-01   4.000000E-01   4.000000E-01   4.000000E-01   4.000000E-01   4.000000E-01   4.000000E-01   4.000000E-01   4.000000E-01   4.000000E-01   4.000000E-01   4.000000E-01   4.000000E-01   4.000000E-01   4.000000E-01   4.000000E-01   4.000000E-01   4.000000E-01   4.000000E-01   4.000000E-01   4.000000E-01   4.000000E-01   4.000000E-01   4.000000E-01   4.000000E-01   4.000000E-01   4.000000E-01   4.000000E-01   4.000000E-01   4.000000E-01   4.000000E-01   4.000000E-01   4.000000E-01   4.000000E-01   4.000000E-01   4.000000E-01   4.000000E-01   4.000000E-01   4.000000E-01   4.000000E-01   4.000000E-01   4.000000E-01   4.000000E-01   4.000000E-01   4.000000E-01   4.000000E-01   4.000000E-01   4.000000E-01   4.000000E-01   4.000000E-01   4.000000E-01   4.000000E-01   4.000000E-01   4.000000E-01   4.000000E-01   4.000000E-01   4.000000E-01   4.000000E-01   4.000000E-01   4.000000E-01   4.000000E-01   4.000000E-01   4.000000E-01   4.000000E-01   4.000000E-01   4.000000E-01   4.000000E-01   4.000000E-01   4.000000E-01   4.000000E-01   4.000000E-01   4.000000E-01   4.000000E-01   4.000000E-01   4.000000E-01   4.000000E-01   4.000000E-01   4.000000E-01   4.000000E-01   4.000000E-01   4.000000E-01   4.000000E-01   4.000000E-01   4.000000E-01   4.000000E-01   4.000000E-01   4.000000E-01   4.000000E-01   4.000000E-01   4.000000E-01   4.000000E-01   4.000000E-01   4.000000E-01   4.000000E-01   4.000000E-01   4.000000E-01   4.000000E-01   4.000000E-01   4.000000E-01   4.000000E-01   4.000000E-01   4.000000E-01   4.000000E-01   4.000000E-01   4.000000E-01   4.000000E-01   4.000000E-01   4.000000E-01   4.000000E-01   4.000000E-01   4.000000E-01   4.000000E-01   4.000000E-01   4.000000E-01   4.000000E-01   4.000000E-01   4.000000E-01   4.000000E-01   4.000000E-01   4.000000E-01   4.000000E-01   4.000000E-01   4.000000E-01   4.000000E-01   4.000000E-01   4.000000E-01   4.000000E-01   4.000000E-01   4.000000E-01   4.000000E-01   4.000000E-01   4.000000E-01   4.000000E-01   4.000000E-01   4.000000E-01   4.000000E-01   4.000000E-01   4.000000E-01   4.000000E-01   4.000000E-01   4.000000E-01   4.000000E-01   4.000000E-01   4.000000E-01   4.000000E-01   4.000000E-01   4.000000E-01   4.000000E-01   4.000000E-01   4.000000E-01   4.000000E-01   4.000000E-01   4.000000E-01   4.000000E-01   4.000000E-01   4.000000E-01   4.000000E-01   4.000000E-01   4.000000E-01   4.000000E-01   4.000000E-01   4.000000E-01   4.000000E-01   4.000000E-01   4.000000E-01   4.000000E-01   4.000000E-01   4.000000E-01   4.000000E-01   4.000000E-01   4.000000E-01   4.000000E-01   4.000000E-01   4.000000E-01   4.000000E-01   4.000000E-01   4.000000E-01   4.000000E-01   4.000000E-01   4.000000E-01   4.000000E-01   4.000000E-01   4.000000E-01   4.000000E-01   4.000000E-01   4.000000E-01   4.000000E-01   4.000000E-01   4.000000E-01   4.000000E-01   4.000000E-01   4.000000E-01   4.000000E-01   4.000000E-01   4.000000E-01   4.000000E-01   4.000000E-01   4.000000E-01   4.000000E-01   4.000000E-01   4.000000E-01   4.000000E-01   4.000000E-01   4.000000E-01   4.000000E-01   4.000000E-01   4.000000E-01   4.000000E-01   4.000000E-01   4.000000E-01   4.000000E-01   4.000000E-01   4.000000E-01   4.000000E-01   4.000000E-01   4.000000E-01   4.000000E-01   4.000000E-01   4.000000E-01   4.000000E-01   4.000000E-01   4.000000E-01   4.000000E-01   4.000000E-01   4.000000E-01   4.000000E-01   4.000000E-01   4.000000E-01   4.000000E-01   4.000000E-01   4.000000E-01   4.000000E-01   4.000000E-01   4.000000E-01   4.000000E-01   4.000000E-01   4.000000E-01   4.000000E-01   4.000000E-01   4.000000E-01   4.000000E-01   4.000000E-01   4.000000E-01   4.000000E-01   4.000000E-01   4.000000E-01   4.000000E-01   4.000000E-01   4.000000E-01   4.000000E-01   4.000000E-01   4.000000E-01   4.000000E-01   4.000000E-01   4.000000E-01   4.000000E-01   4.000000E-01   4.000000E-01   4.000000E-01   4.000000E-01   4.000000E-01   4.000000E-01   4.000000E-01   4.000000E-01   4.000000E-01   4.000000E-01   4.000000E-01   4.000000E-01   4.000000E-01   4.000000E-01   4.000000E-01   4.000000E-01   4.000000E-01   4.000000E-01   4.000000E-01   4.000000E-01   4.000000E-01   4.000000E-01   4.000000E-01   4.000000E-01   4.000000E-01   4.000000E-01   4.000000E-01   4.000000E-01   4.000000E-01   4.000000E-01   4.000000E-01   4.000000E-01   4.000000E-01   4.000000E-01   4.000000E-01   4.000000E-01   4.000000E-01   4.000000E-01   4.000000E-01   4.000000E-01   4.000000E-01   4.000000E-01   4.000000E-01   4.000000E-01   4.000000E-01   4.000000E-01   4.000000E-01   4.000000E-01   4.000000E-01   4.000000E-01   4.000000E-01   4.000000E-01   4.000000E-01   4.000000E-01   4.000000E-01   4.000000E-01   4.000000E-01   4.000000E-01   4.000000E-01   4.000000E-01   4.000000E-01   4.000000E-01   4.000000E-01   4.000000E-01   4.000000E-01   4.000000E-01   4.000000E-01   4.000000E-01   4.000000E-01   4.000000E-01   4.000000E-01   4.000000E-01   4.000000E-01   4.000000E-01   4.000000E-01   4.000000E-01   4.000000E-01   4.000000E-01   4.000000E-01   4.000000E-01   4.000000E-01   4.000000E-01   4.000000E-01   4.000000E-01   4.000000E-01   4.000000E-01   4.000000E-01   4.000000E-01   4.000000E-01   4.000000E-01   4.000000E-01   4.000000E-01   4.000000E-01   4.000000E-01   4.000000E-01   4.000000E-01   4.000000E-01   4.000000E-01   4.000000E-01   4.000000E-01   4.000000E-01   4.000000E-01   4.000000E-01   4.000000E-01   4.000000E-01   4.000000E-01   4.000000E-01   4.000000E-01   4.000000E-01   4.000000E-01   4.000000E-01   4.000000E-01   4.000000E-01   4.000000E-01   4.000000E-01   4.000000E-01   4.000000E-01   4.000000E-01   4.000000E-01   4.000000E-01   4.000000E-01   4.000000E-01   4.000000E-01   4.000000E-01   4.000000E-01   4.000000E-01   4.000000E-01   4.000000E-01   4.000000E-01   4.000000E-01   4.000000E-01   4.000000E-01   4.000000E-01   4.000000E-01   4.000000E-01   4.000000E-01   4.000000E-01   4.000000E-01   4.000000E-01   4.000000E-01   4.000000E-01   4.000000E-01   4.000000E-01   4.000000E-01   4.000000E-01   4.000000E-01   4.000000E-01   4.000000E-01   4.000000E-01   4.000000E-01   4.000000E-01   4.000000E-01   4.000000E-01   4.000000E-01   4.000000E-01   4.000000E-01   4.000000E-01   4.000000E-01   4.000000E-01   4.000000E-01   4.000000E-01   4.000000E-01   4.000000E-01   4.000000E-01   4.000000E-01   4.000000E-01   4.000000E-01   4.000000E-01   4.000000E-01   4.000000E-01   4.000000E-01   4.000000E-01   4.000000E-01   4.000000E-01   4.000000E-01   4.000000E-01   4.000000E-01   4.000000E-01   4.000000E-01   4.000000E-01   4.000000E-01   4.000000E-01   4.000000E-01   4.000000E-01   4.000000E-01   4.000000E-01   4.000000E-01   4.000000E-01   4.000000E-01   4.000000E-01   4.000000E-01   4.000000E-01   4.000000E-01   4.000000E-01   4.000000E-01   4.000000E-01   4.000000E-01   4.000000E-01   4.000000E-01   4.000000E-01   4.000000E-01   4.000000E-01   4.000000E-01   4.000000E-01   4.000000E-01   4.000000E-01   4.000000E-01   4.000000E-01   4.000000E-01   4.000000E-01   4.000000E-01   4.000000E-01   4.000000E-01   4.000000E-01   4.000000E-01   4.000000E-01   4.000000E-01   4.000000E-01   4.000000E-01   4.000000E-01   4.000000E-01   4.000000E-01   4.000000E-01   4.000000E-01   4.000000E-01   4.000000E-01   4.000000E-01   4.000000E-01   4.000000E-01   4.000000E-01   4.000000E-01   4.000000E-01   4.000000E-01   4.000000E-01   4.000000E-01   4.000000E-01   4.000000E-01   4.000000E-01   4.000000E-01   4.000000E-01   4.000000E-01   4.000000E-01   4.000000E-01   4.000000E-01   4.000000E-01   4.000000E-01   4.000000E-01   4.000000E-01   4.000000E-01   4.000000E-01   4.000000E-01   4.000000E-01   4.000000E-01   4.000000E-01   4.000000E-01   4.000000E-01   4.000000E-01   4.000000E-01   4.000000E-01   4.000000E-01   4.000000E-01   4.000000E-01   4.000000E-01   4.000000E-01   4.000000E-01   4.000000E-01   4.000000E-01   4.000000E-01   4.000000E-01   4.000000E-01   4.000000E-01   4.000000E-01   4.000000E-01   4.000000E-01   4.000000E-01   4.000000E-01   4.000000E-01   4.000000E-01   4.000000E-01   4.000000E-01   4.000000E-01   4.000000E-01   4.000000E-01   4.000000E-01   4.000000E-01   4.000000E-01   4.000000E-01   4.000000E-01   4.000000E-01   4.000000E-01   4.000000E-01   4.000000E-01   4.000000E-01   4.000000E-01   4.000000E-01   4.000000E-01   4.000000E-01   4.000000E-01   4.000000E-01   4.000000E-01   4.000000E-01   4.000000E-01   4.000000E-01   4.000000E-01   4.000000E-01   4.000000E-01   4.000000E-01   4.000000E-01   4.000000E-01   4.000000E-01   4.000000E-01   4.000000E-01   4.000000E-01   4.000000E-01   4.000000E-01   4.000000E-01   4.000000E-01   4.000000E-01   4.000000E-01   4.000000E-01   4.000000E-01   4.000000E-01   4.000000E-01   4.000000E-01   4.000000E-01   4.000000E-01   4.000000E-01   4.000000E-01   4.000000E-01   4.000000E-01   4.000000E-01   4.000000E-01   4.000000E-01   4.000000E-01   4.000000E-01   4.000000E-01   4.000000E-01   4.000000E-01   4.000000E-01   4.000000E-01   4.000000E-01   4.000000E-01   4.000000E-01   4.000000E-01   4.000000E-01   4.000000E-01   4.000000E-01   4.000000E-01   4.000000E-01   4.000000E-01   4.000000E-01   4.000000E-01   4.000000E-01   4.000000E-01   4.000000E-01   4.000000E-01   4.000000E-01   4.000000E-01   4.000000E-01   4.000000E-01   4.000000E-01   4.000000E-01   4.000000E-01   4.000000E-01   4.000000E-01   4.000000E-01   4.000000E-01   4.000000E-01   4.000000E-01   4.000000E-01   4.000000E-01   4.000000E-01   4.000000E-01   4.000000E-01   4.000000E-01   4.000000E-01   4.000000E-01   4.000000E-01   4.000000E-01   4.000000E-01   4.000000E-01   4.000000E-01   4.000000E-01   4.000000E-01   4.000000E-01   4.000000E-01   4.000000E-01   4.000000E-01   4.000000E-01   4.000000E-01   4.000000E-01   4.000000E-01   4.000000E-01   4.000000E-01   4.000000E-01   4.000000E-01   4.000000E-01   4.000000E-01   4.000000E-01   4.000000E-01   4.000000E-01   4.000000E-01   4.000000E-01   4.000000E-01   4.000000E-01   4.000000E-01   4.000000E-01   4.000000E-01   4.000000E-01   4.000000E-01   4.000000E-01   4.000000E-01   4.000000E-01   4.000000E-01   4.000000E-01   4.000000E-01   4.000000E-01   4.000000E-01   4.000000E-01   4.000000E-01   4.000000E-01   4.000000E-01   4.000000E-01   4.000000E-01   4.000000E-01   4.000000E-01   4.000000E-01   4.000000E-01   4.000000E-01   4.000000E-01   4.000000E-01   4.000000E-01   4.000000E-01   4.000000E-01   4.000000E-01   4.000000E-01   4.000000E-01   4.000000E-01   4.000000E-01   4.000000E-01   4.000000E-01   4.000000E-01   4.000000E-01   4.000000E-01   4.000000E-01   4.000000E-01   4.000000E-01   4.000000E-01   4.000000E-01   4.000000E-01   4.000000E-01   4.000000E-01   4.000000E-01   4.000000E-01   4.000000E-01   4.000000E-01   4.000000E-01   4.000000E-01   4.000000E-01   4.000000E-01   4.000000E-01   4.000000E-01   4.000000E-01   4.000000E-01   4.000000E-01   4.000000E-01   4.000000E-01   4.000000E-01   4.000000E-01   4.000000E-01   4.000000E-01   4.000000E-01   4.000000E-01   4.000000E-01   4.000000E-01   4.000000E-01   4.000000E-01   4.000000E-01   4.000000E-01   4.000000E-01   4.000000E-01   4.000000E-01   4.000000E-01   4.000000E-01   4.000000E-01   4.000000E-01   4.000000E-01   4.000000E-01   4.000000E-01   4.000000E-01   4.000000E-01   4.000000E-01   4.000000E-01   4.000000E-01   4.000000E-01   4.000000E-01   4.000000E-01   4.000000E-01   4.000000E-01   4.000000E-01   4.000000E-01   4.000000E-01   4.000000E-01   4.000000E-01   4.000000E-01   4.000000E-01   4.000000E-01   4.000000E-01   4.000000E-01   4.000000E-01   4.000000E-01   4.000000E-01   4.000000E-01   4.000000E-01   4.000000E-01   4.000000E-01   4.000000E-01   4.000000E-01   4.000000E-01   4.000000E-01   4.000000E-01   4.000000E-01   4.000000E-01   4.000000E-01   4.000000E-01   4.000000E-01   4.000000E-01   4.000000E-01   4.000000E-01   4.000000E-01   4.000000E-01   4.000000E-01   4.000000E-01   4.000000E-01   4.000000E-01   4.000000E-01   4.000000E-01   4.000000E-01   4.000000E-01   4.000000E-01   4.000000E-01   4.000000E-01   4.000000E-01   4.000000E-01   4.000000E-01   4.000000E-01   4.000000E-01   4.000000E-01   4.000000E-01   4.000000E-01   4.000000E-01   4.000000E-01   4.000000E-01   4.000000E-01   4.000000E-01   4.000000E-01   4.000000E-01   4.000000E-01   4.000000E-01   4.000000E-01   4.000000E-01   4.000000E-01   4.000000E-01   4.000000E-01   4.000000E-01   4.000000E-01   4.000000E-01   4.000000E-01   4.000000E-01   4.000000E-01   4.000000E-01   4.000000E-01   4.000000E-01   4.000000E-01   4.000000E-01   4.000000E-01   4.000000E-01   4.000000E-01   4.000000E-01   4.000000E-01   4.000000E-01   4.000000E-01   4.000000E-01   4.000000E-01   4.000000E-01   4.000000E-01   4.000000E-01   4.000000E-01   4.000000E-01   4.000000E-01   4.000000E-01   4.000000E-01   4.000000E-01   4.000000E-01   4.000000E-01   4.000000E-01   4.000000E-01   4.000000E-01   4.000000E-01   4.000000E-01   4.000000E-01   4.000000E-01   4.000000E-01   4.000000E-01   4.000000E-01   4.000000E-01   4.000000E-01   4.000000E-01   4.000000E-01   4.000000E-01   4.000000E-01   4.000000E-01   4.000000E-01   4.000000E-01   4.000000E-01   4.000000E-01   4.000000E-01   4.000000E-01   4.000000E-01   4.000000E-01   4.000000E-01   4.000000E-01   4.000000E-01   4.000000E-01   4.000000E-01   4.000000E-01   4.000000E-01   4.000000E-01   4.000000E-01   4.000000E-01   4.000000E-01   4.000000E-01   4.000000E-01   4.000000E-01   4.000000E-01   4.000000E-01   4.000000E-01   4.000000E-01   4.000000E-01   4.000000E-01   4.000000E-01   4.000000E-01   4.000000E-01   4.000000E-01   4.000000E-01   4.000000E-01   4.000000E-01   4.000000E-01   4.000000E-01   4.000000E-01   4.000000E-01   4.000000E-01   4.000000E-01   4.000000E-01   4.000000E-01   4.000000E-01   4.000000E-01   4.000000E-01   4.000000E-01   4.000000E-01   4.000000E-01   4.000000E-01   4.000000E-01   4.000000E-01   4.000000E-01   4.000000E-01   4.000000E-01   4.000000E-01   4.000000E-01   4.000000E-01   4.000000E-01   4.000000E-01   4.000000E-01   4.000000E-01   4.000000E-01   4.000000E-01   4.000000E-01   4.000000E-01   4.000000E-01   4.000000E-01   4.000000E-01   4.000000E-01   4.000000E-01   4.000000E-01   4.000000E-01   4.000000E-01   4.000000E-01   4.000000E-01   4.000000E-01   4.000000E-01   4.000000E-01   4.000000E-01   4.000000E-01   4.000000E-01   4.000000E-01   4.000000E-01   4.000000E-01   4.000000E-01   4.000000E-01   4.000000E-01   4.000000E-01   4.000000E-01   4.000000E-01   4.000000E-01   4.000000E-01   4.000000E-01   4.000000E-01   4.000000E-01   4.000000E-01   4.000000E-01   4.000000E-01   4.000000E-01   4.000000E-01   4.000000E-01   4.000000E-01   4.000000E-01   4.000000E-01   4.000000E-01   4.000000E-01   4.000000E-01   4.000000E-01   4.000000E-01   4.000000E-01   4.000000E-01   4.000000E-01   4.000000E-01   4.000000E-01   4.000000E-01   4.000000E-01   4.000000E-01   4.000000E-01   4.000000E-01   4.000000E-01   4.000000E-01   4.000000E-01   4.000000E-01   4.000000E-01   4.000000E-01   4.000000E-01   4.000000E-01   4.000000E-01   4.000000E-01   4.000000E-01   4.000000E-01   4.000000E-01   4.000000E-01   4.000000E-01   4.000000E-01   4.000000E-01   4.000000E-01   4.000000E-01   4.000000E-01   4.000000E-01   4.000000E-01   4.000000E-01   4.000000E-01   4.000000E-01   4.000000E-01   4.000000E-01   4.000000E-01   4.000000E-01   4.000000E-01   4.000000E-01   4.000000E-01   4.000000E-01   4.000000E-01   4.000000E-01   4.000000E-01   4.000000E-01   4.000000E-01   4.000000E-01   4.000000E-01   4.000000E-01   4.000000E-01   4.000000E-01   4.000000E-01   4.000000E-01   4.000000E-01   4.000000E-01   4.000000E-01   4.000000E-01   4.000000E-01   4.000000E-01   4.000000E-01   4.000000E-01   4.000000E-01   4.000000E-01   4.000000E-01   4.000000E-01   4.000000E-01   4.000000E-01   4.000000E-01   4.000000E-01   4.000000E-01   4.000000E-01   4.000000E-01   4.000000E-01   4.000000E-01   4.000000E-01   4.000000E-01   4.000000E-01   4.000000E-01   4.000000E-01   4.000000E-01   4.000000E-01   4.000000E-01   4.000000E-01   4.000000E-01   4.000000E-01   4.000000E-01   4.000000E-01   4.000000E-01   4.000000E-01   4.000000E-01   4.000000E-01   4.000000E-01   4.000000E-01   4.000000E-01   4.000000E-01   4.000000E-01   4.000000E-01   4.000000E-01   4.000000E-01   4.000000E-01   4.000000E-01   4.000000E-01   