<?xml version="1.0"?>
<!-- Time =  9.0009829269476949E-01s -->
<VTKFile type="PolyData" version="0.1" byte_order="LittleEndian">
<PolyData>
<Piece NumberOfPoints="0000028800" NumberOfVerts="0" NumberOfLines="0" NumberOfStrips="0" NumberOfPolys="0">
<Points>
<DataArray type="Float32" Name="Position" NumberOfComponents="3" format="ascii">
  8.413354E-01   1.988942E-01   5.795003E-01   1.348997E+00   1.966145E-01   4.563896E-01   2.107409E+00   1.988206E-01   1.989759E-01   3.861619E+00   1.987458E-01   2.037687E-01   4.458743E+00   1.990318E-01   5.472886E-01   6.673755E+00   4.429119E+00   1.867482E+00   6.675443E+00   1.650683E+01   1.523523E+00   4.914600E+00   1.141418E+01   1.318544E+00   3.222863E+00   1.169344E+01   1.282502E+00   1.551999E+00   7.137665E+00   8.020014E-01   1.995268E-01   9.642971E+00   3.106737E+00   2.496056E+00   8.495597E+00   5.643340E-01   6.194725E-01   9.336155E+00   5.435982E-01   8.375100E-01   8.864199E+00   2.278786E+00   5.553658E+00   1.031683E+01   3.280717E-01   1.377186E+01   7.981033E+00   4.444212E+00   1.356397E+01   8.359902E+00   2.870513E+00   5.479832E-01   7.647448E+00   4.884340E+00   1.327079E+01   6.964910E+00   1.758903E+00   3.409182E+00   7.383439E+00   4.429524E+00   3.169223E+00   1.017716E+01   2.074964E+00   3.332093E+00   9.131465E+00   2.109678E+00   9.192974E+00   1.699535E+01   2.231841E+00   7.378379E+00   1.282461E+01   2.914444E+00   1.143001E+01   1.968229E-01   5.409645E-01   1.252629E+01   1.947760E-01   1.992372E-01   1.273851E+01   1.990506E-01   5.380272E-01   1.348927E+01   1.965147E-01   5.383831E-01   1.397114E+01   1.975692E-01   9.250734E-01   2.403203E-01   1.956706E-01   1.023296E+00   1.153113E+00   1.967486E-01   9.429583E-01   2.521345E+00   1.989760E-01   1.274955E+00   2.888322E+00   1.984006E-01   9.754291E-01   3.445641E+00   1.989675E-01   9.003025E-01   4.681670E+00   1.984541E-01   1.008634E+00   6.846555E+00   1.129253E+01   2.412587E+00   5.965127E+00   8.048279E+00   2.916665E+00   6.726818E+00   1.808831E+01   2.234431E+00   5.131411E+00   8.607405E+00   9.019826E-01   3.940912E+00   9.156537E+00   1.701481E+00   5.409253E-01   6.594744E+00   3.640759E+00   4.726665E-01   8.354399E+00   4.609275E+00   9.543754E-01   9.316020E+00   3.453700E+00   8.820744E+00   1.001284E+01   4.167307E-01   6.004778E-01   9.922222E+00   5.160197E-01   5.637663E-01   9.023097E+00   2.976386E+00   2.600277E+00   9.308718E+00   8.953134E-01   1.357235E+01   7.799112E+00   2.754004E+00   1.542024E+00   8.849248E+00   2.350283E+00   1.356533E+01   6.060106E+00   4.066551E+00   3.218662E+00   6.761158E+00   3.105499E+00   8.331742E+00   1.615314E+01   1.948542E+00   8.610579E+00   1.231622E+01   5.141610E-01   7.184471E+00   1.639311E+00   1.029705E+00   8.426408E+00   2.682072E-01   1.539403E+00   1.131605E+01   1.993326E-01   1.050796E+00   1.287322E+01   1.974211E-01   9.139187E-01   1.327183E+01   1.972910E-01   8.731681E-01   1.385908E+01   3.466571E-01   5.476213E-01   1.467405E+01   1.999546E-01   5.785467E-01   1.978938E-01   1.967300E-01   6.072245E-01   1.932791E+00   2.000522E-01   8.656558E-01   2.384417E+00   1.953621E-01   5.667933E-01   2.871908E+00   1.955505E-01   1.995973E-01   3.216958E+00   1.988996E-01   5.725425E-01   6.088915E+00   1.999357E-01   2.004730E-01   5.647487E+00   1.796630E+01   2.701112E+00   3.859304E+00   9.065568E+00   2.134214E+00   1.995865E-01   8.057738E+00   5.492657E-01   2.537543E+00   7.516282E+00   4.362992E+00   3.031531E+00   7.114278E+00   3.104765E+00   8.927130E-01   7.224680E+00   2.974120E+00   3.300426E+00   6.866807E+00   4.366174E+00   1.333186E+00   9.849205E+00   9.408772E-01   1.392003E+00   6.847716E+00   4.564103E+00   1.082732E+00   7.388368E+00   3.285542E+00   1.752969E+00   9.454121E+00   3.777544E-01   8.868837E-01   8.486267E+00   3.158600E+00   1.119285E+01   7.299957E+00   4.152249E+00   1.123788E+01   6.978187E+00   2.505560E+00   1.220374E+00   8.952435E+00   2.136624E+00   4.941718E+00   9.194054E+00   1.177220E+00   1.018373E+01   8.750254E+00   1.518961E+00   9.676000E+00   1.687380E+01   2.992212E+00   8.549437E+00   2.174650E-01   6.189653E-01   1.006637E+01   1.991197E-01   5.277312E-01   1.178056E+01   1.976997E-01   1.991517E-01   1.199039E+01   1.982453E-01   5.382025E-01   1.327936E+01   1.977620E-01   1.985567E-01   1.422959E+01   1.985132E-01   5.546464E-01   1.999950E-01   1.999245E-01   2.028170E-01   6.466871E-01   1.961131E-01   2.003255E-01   1.652944E+00   1.967642E-01   1.989720E-01   2.490194E+00   3.143940E-01   1.998985E-01   3.461650E+00   1.974900E-01   1.995250E-01   4.682016E+00   1.965940E-01   1.994564E-01   7.482903E+00   7.122490E+00   2.777195E+00   3.800498E+00   1.065355E+01   5.961425E-01   1.310808E+01   1.033572E+01   2.047393E+00   1.413762E+01   7.342001E+00   4.917619E-01   9.761233E+00   7.930990E+00   1.329379E+00   4.409294E+00   8.532806E+00   5.529011E-01   3.623611E+00   9.394953E+00   6.327999E-01   5.663874E-01   7.966896E+00   4.644288E+00   2.262441E+00   8.787443E+00   2.793272E+00   2.869817E+00   6.796148E+00   3.298010E+00   1.374121E+01   6.537593E+00   2.458734E+00   1.320124E+01   9.209517E+00   3.960978E+00   1.480162E+01   7.047106E+00   2.811524E+00   1.211892E+01   7.470486E+00   3.418677E+00   2.753972E+00   6.533460E+00   4.410770E+00   1.237472E+01   6.999033E+00   2.173625E+00   1.012798E+01   7.217884E+00   2.898956E+00   8.137099E+00   8.212807E+00   2.186507E-01   1.070812E+01   1.010850E+01   2.776562E+00   7.897162E+00   1.453088E+01   2.936490E+00   9.830493E+00   1.984421E-01   1.994439E-01   1.122110E+01   1.997822E-01   1.998209E-01   1.215400E+01   3.391299E-01   2.003910E-01   1.290198E+01   3.298912E-01   1.980011E-01   1.404563E+01   1.947181E-01   1.998188E-01   1.480040E+01   1.965929E-01   1.990836E-01   1.130077E+00   4.661971E-01   6.492000E-01   1.045542E+00   1.962718E-01   1.984895E-01   2.045590E+00   3.997722E-01   5.378709E-01   2.783466E+00   1.994802E-01   5.896134E-01   5.184325E+00   1.979031E-01   5.821738E-01   6.504813E+00   2.024864E-01   9.469863E-01   6.569458E+00   1.422018E+01   1.826544E+00   1.057359E+01   9.897388E+00   7.164716E-01   1.180810E+01   1.085838E+01   3.868567E+00   1.780831E+00   7.150328E+00   4.964747E+00   1.293155E+01   6.383671E+00   2.756778E+00   1.168484E+00   9.116659E+00   1.999321E-01   9.171432E-01   8.701639E+00   1.330113E+00   1.962083E+00   1.014770E+01   9.969712E-01   8.453049E-01   8.588664E+00   2.568113E+00   8.270867E-01   8.519775E+00   4.688763E+00   1.433109E+01   7.751953E+00   3.251544E+00   1.355114E+00   8.513338E+00   2.667134E+00   1.378269E+01   8.118942E+00   2.638789E+00   1.412635E+01   8.145553E+00   2.923926E+00   9.941086E+00   7.013903E+00   3.203223E+00   3.486542E+00   7.511691E+00   2.003116E-01   8.761055E+00   9.359662E+00   8.946664E-01   6.653845E+00   9.824133E+00   7.847508E-01   1.147138E+01   1.478684E+01   9.954036E-01   7.146604E+00   1.104189E+01   2.990430E+00   8.600369E+00   1.993857E-01   1.015023E+00   1.079969E+01   1.998704E-01   5.444237E-01   1.247306E+01   1.996253E-01   9.054949E-01   1.366451E+01   3.158539E-01   1.996098E-01   1.442269E+01   3.270374E-01   2.032949E-01   2.074711E-01   5.667974E-01   8.885965E-01   5.250743E-01   3.588407E-01   7.636002E-01   1.534536E+00   1.996182E-01   8.228880E-01   3.163517E+00   4.815451E-01   9.158701E-01   3.645606E+00   1.999213E-01   5.539206E-01   6.294016E+00   2.013069E-01   5.454011E-01   6.408550E+00   1.385801E+01   3.530835E+00   3.642364E+00   1.041564E+01   1.342686E+00   1.112839E+01   1.096484E+01   2.776325E+00   9.787223E-01   7.607182E+00   2.024545E-01   1.930554E+00   6.623312E+00   5.081241E-01   1.327148E+00   8.156849E+00   2.489313E+00   7.109646E-01   9.040050E+00   1.278102E+00   5.613814E-01   1.169039E+01   3.225543E-01   1.409625E+00   8.797226E+00   2.000616E-01   1.995796E-01   9.370852E+00   1.591705E+00   1.439515E+01   7.724627E+00   5.354669E-01   1.393415E+01   6.803217E+00   3.700536E+00   1.355277E+01   7.074156E+00   4.763649E+00   8.039869E-01   7.321745E+00   4.128893E+00   9.473786E+00   7.168708E+00   2.003382E-01   2.042597E+00   6.598385E+00   3.235358E+00   3.827770E+00   8.786899E+00   1.846140E+00   1.280262E+01   9.969681E+00   2.414841E+00   7.300404E+00   1.344371E+01   1.376977E+00   8.168489E+00   1.662391E+01   2.174568E+00   9.656840E+00   1.972020E-01   8.622339E-01   1.093810E+01   1.990159E-01   9.199834E-01   1.444309E+01   5.351806E-01   5.442269E-01   1.429982E+01   5.117630E-01   1.141725E+00   1.469121E+01   8.770317E-01   5.770226E-01   8.737867E-01   5.226959E-01   3.479523E-01   1.251969E+00   5.362972E-01   1.999499E-01   1.651061E+00   4.444713E-01   5.295110E-01   3.167221E+00   4.652735E-01   1.986723E-01   4.261074E+00   1.990538E-01   1.997314E-01   5.304120E+00   1.959605E-01   1.995534E-01   6.878716E+00   9.079537E+00   2.644681E+00   6.589453E+00   8.740084E+00   6.679348E-01   2.997905E+00   6.469915E+00   3.490356E+00   1.421695E+01   7.601898E+00   1.992773E-01   8.654481E-01   8.079063E+00   1.498849E+00   2.209308E+00   7.320335E+00   4.150834E+00   4.817337E-01   9.214896E+00   4.471746E+00   1.973822E+00   6.912362E+00   3.473973E+00   1.397060E+01   7.801586E+00   2.792494E+00   1.440527E+01   8.154706E+00   5.455295E-01   1.410758E+01   8.490392E+00   1.568476E+00   1.993288E-01   7.731139E+00   2.888215E+00   1.372775E+01   6.478191E+00   3.594964E+00   1.706879E+00   6.934979E+00   1.927791E+00   1.282371E+01   6.749806E+00   3.026967E+00   1.133829E+01   1.094519E+01   6.584728E-01   1.028394E+01   1.032829E+01   2.046597E+00   2.301498E+00   9.813236E+00   2.188369E+00   7.004859E+00   8.186852E+00   2.913363E+00   1.051475E+01   1.979988E-01   1.990352E-01   1.086377E+01   3.916361E-01   1.989746E-01   1.351838E+01   5.923707E-01   5.467873E-01   1.405674E+01   5.893921E-01   2.067858E-01   1.480225E+01   5.524563E-01   3.739899E-01   4.614917E-01   5.460508E-01  
[...]
<PointData Scalars="Diameter" Vectors="Velocity">
<DataArray type="Float32" Name="Diameter" format="ascii">
  4.000000E-01   4.000000E-01   4.000000E-01   4.000000E-01   4.000000E-01   4.000000E-01   4.000000E-01   4.000000E-01   4.000000E-01   4.000000E-01   4.000000E-01   4.000000E-01   4.000000E-01   4.000000E-01   4.000000E-01   4.000000E-01   4.000000E-01   4.000000E-01   4.000000E-01   4.000000E-01   4.000000E-01   4.000000E-01   4.000000E-01   4.000000E-01   4.000000E-01   4.000000E-01   4.000000E-01   4.000000E-01   4.000000E-01   4.000000E-01   4.000000E-01   4.000000E-01   4.000000E-01   4.000000E-01   4.000000E-01   4.000000E-01   4.000000E-01   4.000000E-01   4.000000E-01   4.000000E-01   4.000000E-01   4.000000E-01   4.000000E-01   4.000000E-01   4.000000E-01   4.000000E-01   4.000000E-01   4.000000E-01   4.000000E-01   4.000000E-01   4.000000E-01   4.000000E-01   4.000000E-01   4.000000E-01   4.000000E-01   4.000000E-01   4.000000E-01   4.000000E-01   4.000000E-01   4.000000E-01   4.000000E-01   4.000000E-01   4.000000E-01   4.000000E-01   4.000000E-01   4.000000E-01   4.000000E-01   4.000000E-01   4.000000E-01   4.000000E-01   4.000000E-01   4.000000E-01   4.000000E-01   4.000000E-01   4.000000E-01   4.000000E-01   4.000000E-01   4.000000E-01   4.000000E-01   4.000000E-01   4.000000E-01   4.000000E-01   4.000000E-01   4.000000E-01   4.000000E-01   4.000000E-01   4.000000E-01   4.000000E-01   4.000000E-01   4.000000E-01   4.000000E-01   4.000000E-01   4.000000E-01   4.000000E-01   4.000000E-01   4.000000E-01   4.000000E-01   4.000000E-01   4.000000E-01   4.000000E-01   4.000000E-01   4.000000E-01   4.000000E-01   4.000000E-01   4.000000E-01   4.000000E-01   4.000000E-01   4.000000E-01   4.000000E-01   4.000000E-01   4.000000E-01   4.000000E-01   4.000000E-01   4.000000E-01   4.000000E-01   4.000000E-01   4.000000E-01   4.000000E-01   4.000000E-01   4.000000E-01   4.000000E-01   4.000000E-01   4.000000E-01   4.000000E-01   4.000000E-01   4.000000E-01   4.000000E-01   4.000000E-01   4.000000E-01   4.000000E-01   4.000000E-01   4.000000E-01   4.000000E-01   4.000000E-01   4.000000E-01   4.000000E-01   4.000000E-01   4.000000E-01   4.000000E-01   4.000000E-01   4.000000E-01   4.000000E-01   4.000000E-01   4.000000E-01   4.000000E-01   4.000000E-01   4.000000E-01   4.000000E-01   4.000000E-01   4.000000E-01   4.000000E-01   4.000000E-01   4.000000E-01   4.000000E-01   4.000000E-01   4.000000E-01   4.000000E-01   4.000000E-01   4.000000E-01   4.000000E-01   4.000000E-01   4.000000E-01   4.000000E-01   4.000000E-01   4.000000E-01   4.000000E-01   4.000000E-01   4.000000E-01   4.000000E-01   4.000000E-01   4.000000E-01   4.000000E-01   4.000000E-01   4.000000E-01   4.000000E-01   4.000000E-01   4.000000E-01   4.000000E-01   4.000000E-01   4.000000E-01   4.000000E-01   4.000000E-01   4.000000E-01   4.000000E-01   4.000000E-01   4.000000E-01   4.000000E-01   4.000000E-01   4.000000E-01   4.000000E-01   4.000000E-01   4.000000E-01   4.000000E-01   4.000000E-01   4.000000E-01   4.000000E-01   4.000000E-01   4.000000E-01   4.000000E-01   4.000000E-01   4.000000E-01   4.000000E-01   4.000000E-01   4.000000E-01   4.000000E-01   4.000000E-01   4.000000E-01   4.000000E-01   4.000000E-01   4.000000E-01   4.000000E-01   4.000000E-01   4.000000E-01   4.000000E-01   4.000000E-01   4.000000E-01   4.000000E-01   4.000000E-01   4.000000E-01   4.000000E-01   4.000000E-01   4.000000E-01   4.000000E-01   4.000000E-01   4.000000E-01   4.000000E-01   4.000000E-01   4.000000E-01   4.000000E-01   4.000000E-01   4.000000E-01   4.000000E-01   4.000000E-01   4.000000E-01   4.000000E-01   4.000000E-01   4.000000E-01   4.000000E-01   4.000000E-01   4.000000E-01   4.000000E-01   4.000000E-01   4.000000E-01   4.000000E-01   4.000000E-01   4.000000E-01   4.000000E-01   4.000000E-01   4.000000E-01   4.000000E-01   4.000000E-01   4.000000E-01   4.000000E-01   4.000000E-01   4.000000E-01   4.000000E-01   4.000000E-01   4.000000E-01   4.000000E-01   4.000000E-01   4.000000E-01   4.000000E-01   4.000000E-01   4.000000E-01   4.000000E-01   4.000000E-01   4.000000E-01   4.000000E-01   4.000000E-01   4.000000E-01   4.000000E-01   4.000000E-01   4.000000E-01   4.000000E-01   4.000000E-01   4.000000E-01   4.000000E-01   4.000000E-01   4.000000E-01   4.000000E-01   4.000000E-01   4.000000E-01   4.000000E-01   4.000000E-01   4.000000E-01   4.000000E-01   4.000000E-01   4.000000E-01   4.000000E-01   4.000000E-01   4.000000E-01   4.000000E-01   4.000000E-01   4.000000E-01   4.000000E-01   4.000000E-01   4.000000E-01   4.000000E-01   4.000000E-01   4.000000E-01   4.000000E-01   4.000000E-01   4.000000E-01   4.000000E-01   4.000000E-01   4.000000E-01   4.000000E-01   4.000000E-01   4.000000E-01   4.000000E-01   4.000000E-01   4.000000E-01   4.000000E-01   4.000000E-01   4.000000E-01   4.000000E-01   4.000000E-01   4.000000E-01   4.000000E-01   4.000000E-01   4.000000E-01   4.000000E-01   4.000000E-01   4.000000E-01   4.000000E-01   4.000000E-01   4.000000E-01   4.000000E-01   4.000000E-01   4.000000E-01   4.000000E-01   4.000000E-01   4.000000E-01   4.000000E-01   4.000000E-01   4.000000E-01   4.000000E-01   4.000000E-01   4.000000E-01   4.000000E-01   4.000000E-01   4.000000E-01   4.000000E-01   4.000000E-01   4.000000E-01   4.000000E-01   4.000000E-01   4.000000E-01   4.000000E-01   4.000000E-01   4.000000E-01   4.000000E-01   4.000000E-01   4.000000E-01   4.000000E-01   4.000000E-01   4.000000E-01   4.000000E-01   4.000000E-01   4.000000E-01   4.000000E-01   4.000000E-01   4.000000E-01   4.000000E-01   4.000000E-01   4.000000E-01   4.000000E-01   4.000000E-01   4.000000E-01   4.000000E-01   4.000000E-01   4.000000E-01   4.000000E-01   4.000000E-01   4.000000E-01   4.000000E-01   4.000000E-01   4.000000E-01   4.000000E-01   4.000000E-01   4.000000E-01   4.000000E-01   4.000000E-01   4.000000E-01   4.000000E-01   4.000000E-01   4.000000E-01   4.000000E-01   4.000000E-01   4.000000E-01   4.000000E-01   4.000000E-01   4.000000E-01   4.000000E-01   4.000000E-01   4.000000E-01   4.000000E-01   4.000000E-01   4.000000E-01   4.000000E-01   4.000000E-01   4.000000E-01   4.000000E-01   4.000000E-01   4.000000E-01   4.000000E-01   4.000000E-01   4.000000E-01   4.000000E-01   4.000000E-01   4.000000E-01   4.000000E-01   4.000000E-01   4.000000E-01   4.000000E-01   4.000000E-01   4.000000E-01   4.000000E-01   4.000000E-01   4.000000E-01   4.000000E-01   4.000000E-01   4.000000E-01   4.000000E-01   4.000000E-01   4.000000E-01   4.000000E-01   4.000000E-01   4.000000E-01   4.000000E-01   4.000000E-01   4.000000E-01   4.000000E-01   4.000000E-01   4.000000E-01   4.000000E-01   4.000000E-01   4.000000E-01   4.000000E-01   4.000000E-01   4.000000E-01   4.000000E-01   4.000000E-01   4.000000E-01   4.000000E-01   4.000000E-01   4.000000E-01   4.000000E-01   4.000000E-01   4.000000E-01   4.000000E-01   4.000000E-01   4.000000E-01   4.000000E-01   4.000000E-01   4.000000E-01   4.000000E-01   4.000000E-01   4.000000E-01   4.000000E-01   4.000000E-01   4.000000E-01   4.000000E-01   4.000000E-01   4.000000E-01   4.000000E-01   4.000000E-01   4.000000E-01   4.000000E-01   4.000000E-01   4.000000E-01   4.000000E-01   4.000000E-01   4.000000E-01   4.000000E-01   4.000000E-01   4.000000E-01   4.000000E-01   4.000000E-01   4.000000E-01   4.000000E-01   4.000000E-01   4.000000E-01   4.000000E-01   4.000000E-01   4.000000E-01   4.000000E-01   4.000000E-01   4.000000E-01   4.000000E-01   4.000000E-01   4.000000E-01   4.000000E-01   4.000000E-01   4.000000E-01   4.000000E-01   4.000000E-01   4.000000E-01   4.000000E-01   4.000000E-01   4.000000E-01   4.000000E-01   4.000000E-01   4.000000E-01   4.000000E-01   4.000000E-01   4.000000E-01   4.000000E-01   4.000000E-01   4.000000E-01   4.000000E-01   4.000000E-01   4.000000E-01   4.000000E-01   4.000000E-01   4.000000E-01   4.000000E-01   4.000000E-01   4.000000E-01   4.000000E-01   4.000000E-01   4.000000E-01   4.000000E-01   4.000000E-01   4.000000E-01   4.000000E-01   4.000000E-01   4.000000E-01   4.000000E-01   4.000000E-01   4.000000E-01   4.000000E-01   4.000000E-01   4.000000E-01   4.000000E-01   4.000000E-01   4.000000E-01   4.000000E-01   4.000000E-01   4.000000E-01   4.000000E-01   4.000000E-01   4.000000E-01   4.000000E-01   4.000000E-01   4.000000E-01   4.000000E-01   4.000000E-01   4.000000E-01   4.000000E-01   4.000000E-01   4.000000E-01   4.000000E-01   4.000000E-01   4.000000E-01   4.000000E-01   4.000000E-01   4.000000E-01   4.000000E-01   4.000000E-01   4.000000E-01   4.000000E-01   4.000000E-01   4.000000E-01   4.000000E-01   4.000000E-01   4.000000E-01   4.000000E-01   4.000000E-01   4.000000E-01   4.000000E-01   4.000000E-01   4.000000E-01   4.000000E-01   4.000000E-01   4.000000E-01   4.000000E-01   4.000000E-01   4.000000E-01   4.000000E-01   4.000000E-01   4.000000E-01   4.000000E-01   4.000000E-01   4.000000E-01   4.000000E-01   4.000000E-01   4.000000E-01   4.000000E-01   4.000000E-01   4.000000E-01   4.000000E-01   4.000000E-01   4.000000E-01   4.000000E-01   4.000000E-01   4.000000E-01   4.000000E-01   4.000000E-01   4.000000E-01   4.000000E-01   4.000000E-01   4.000000E-01   4.000000E-01   4.000000E-01   4.000000E-01   4.000000E-01   4.000000E-01   4.000000E-01   4.000000E-01   4.000000E-01   4.000000E-01   4.000000E-01   4.000000E-01   4.000000E-01   4.000000E-01   4.000000E-01   4.000000E-01   4.000000E-01   4.000000E-01   4.000000E-01   4.000000E-01   4.000000E-01   4.000000E-01   4.000000E-01   4.000000E-01   4.000000E-01   4.000000E-01   4.000000E-01   4.000000E-01   4.000000E-01   4.000000E-01   4.000000E-01   4.000000E-01   4.000000E-01   4.000000E-01   4.000000E-01   4.000000E-01   4.000000E-01   4.000000E-01   4.000000E-01   4.000000E-01   4.000000E-01   4.000000E-01   4.000000E-01   4.000000E-01   4.000000E-01   4.000000E-01   4.000000E-01   4.000000E-01   4.000000E-01   4.000000E-01   4.000000E-01   4.000000E-01   4.000000E-01   4.000000E-01   4.000000E-01   4.000000E-01   4.000000E-01   4.000000E-01   4.000000E-01   4.000000E-01   4.000000E-01   4.000000E-01   4.000000E-01   4.000000E-01   4.000000E-01   4.000000E-01   4.000000E-01   4.000000E-01   4.000000E-01   4.000000E-01   4.000000E-01   4.000000E-01   4.000000E-01   4.000000E-01   4.000000E-01   4.000000E-01   4.000000E-01   4.000000E-01   4.000000E-01   4.000000E-01   4.000000E-01   4.000000E-01   4.000000E-01   4.000000E-01   4.000000E-01   4.000000E-01   4.000000E-01   4.000000E-01   4.000000E-01   4.000000E-01   4.000000E-01   4.000000E-01   4.000000E-01   4.000000E-01   4.000000E-01   4.000000E-01   4.000000E-01   4.000000E-01   4.000000E-01   4.000000E-01   4.000000E-01   4.000000E-01   4.000000E-01   4.000000E-01   4.000000E-01   4.000000E-01   4.000000E-01   4.000000E-01   4.000000E-01   4.000000E-01   4.000000E-01   4.000000E-01   4.000000E-01   4.000000E-01   4.000000E-01   4.000000E-01   4.000000E-01   4.000000E-01   4.000000E-01   4.000000E-01   4.000000E-01   4.000000E-01   4.000000E-01   4.000000E-01   4.000000E-01   4.000000E-01   4.000000E-01   4.000000E-01   4.000000E-01   4.000000E-01   4.000000E-01   4.000000E-01   4.000000E-01   4.000000E-01   4.000000E-01   4.000000E-01   4.000000E-01   4.000000E-01   4.000000E-01   4.000000E-01   4.000000E-01   4.000000E-01   4.000000E-01   4.000000E-01   4.000000E-01   4.000000E-01   4.000000E-01   4.000000E-01   4.000000E-01   4.000000E-01   4.000000E-01   4.000000E-01   4.000000E-01   4.000000E-01   4.000000E-01   4.000000E-01   4.000000E-01   4.000000E-01   4.000000E-01   4.000000E-01   4.000000E-01   4.000000E-01   4.000000E-01   4.000000E-01   4.000000E-01   4.000000E-01   4.000000E-01   4.000000E-01   4.000000E-01   4.000000E-01   4.000000E-01   4.000000E-01   4.000000E-01   4.000000E-01   4.000000E-01   4.000000E-01   4.000000E-01   4.000000E-01   4.000000E-01   4.000000E-01   4.000000E-01   4.000000E-01   4.000000E-01   4.000000E-01   4.000000E-01   4.000000E-01   4.000000E-01   4.000000E-01   4.000000E-01   4.000000E-01   4.000000E-01   4.000000E-01   4.000000E-01   4.000000E-01   4.000000E-01   4.000000E-01   4.000000E-01   4.000000E-01   4.000000E-01   4.000000E-01   4.000000E-01   4.000000E-01   4.000000E-01   4.000000E-01   4.000000E-01   4.000000E-01   4.000000E-01   4.000000E-01   4.000000E-01   4.000000E-01   4.000000E-01   4.000000E-01   4.000000E-01   4.000000E-01   4.000000E-01   4.000000E-01   4.000000E-01   4.000000E-01   4.000000E-01   4.000000E-01   4.000000E-01   4.000000E-01   4.000000E-01   4.000000E-01   4.000000E-01   4.000000E-01   4.000000E-01   4.000000E-01   4.000000E-01   4.000000E-01   4.000000E-01   4.000000E-01   4.000000E-01   4.000000E-01   4.000000E-01   4.000000E-01   4.000000E-01   4.000000E-01   4.000000E-01   4.000000E-01   4.000000E-01   4.000000E-01   4.000000E-01   4.000000E-01   4.000000E-01   4.000000E-01   4.000000E-01   4.000000E-01   4.000000E-01   4.000000E-01   4.000000E-01   4.000000E-01   4.000000E-01   4.000000E-01   4.000000E-01   4.000000E-01   4.000000E-01   4.000000E-01   4.000000E-01   4.000000E-01   4.000000E-01   4.000000E-01   4.000000E-01   4.000000E-01   4.000000E-01   4.000000E-01   4.000000E-01   4.000000E-01   4.000000E-01   4.000000E-01   4.000000E-01   4.000000E-01   4.000000E-01   4.000000E-01   4.000000E-01   4.000000E-01   4.000000E-01   4.000000E-01   4.000000E-01   4.000000E-01   4.000000E-01   4.000000E-01   4.000000E-01   4.000000E-01   4.000000E-01   4.000000E-01   4.000000E-01   4.000000E-01   4.000000E-01   4.000000E-01   4.000000E-01   4.000000E-01   4.000000E-01   4.000000E-01   4.000000E-01   4.000000E-01   4.000000E-01   4.000000E-01   4.000000E-01   4.000000E-01   4.000000E-01   4.000000E-01   4.000000E-01   4.000000E-01   4.000000E-01   4.000000E-01   4.000000E-01   4.000000E-01   4.000000E-01   4.000000E-01   4.000000E-01   4.000000E-01   4.000000E-01   4.000000E-01   4.000000E-01   4.000000E-01   4.000000E-01   4.000000E-01   4.000000E-01   4.000000E-01   4.000000E-01   4.000000E-01   4.000000E-01   4.000000E-01   4.000000E-01   4.000000E-01   4.000000E-01   4.000000E-01   4.000000E-01   4.000000E-01   4.000000E-01   4.000000E-01   4.000000E-01   4.000000E-01   4.000000E-01   4.000000E-01   4.000000E-01   4.000000E-01   4.000000E-01   4.000000E-01   4.000000E-01   4.000000E-01   4.000000E-01   4.000000E-01   4.000000E-01   4.000000E-01   4.000000E-01   4.000000E-01   4.000000E-01   4.000000E-01   4.000000E-01   4.000000E-01   4.000000E-01   4.000000E-01   4.000000E-01   4.000000E-01   4.000000E-01   4.000000E-01   4.000000E-01   4.000000E-01   4.000000E-01   4.000000E-01   4.000000E-01   4.000000E-01   4.000000E-01   4.000000E-01   4.000000E-01   4.000000E-01   4.000000E-01   4.000000E-01   4.000000E-01   4.000000E-01   4.000000E-01   4.000000E-01   4.000000E-01   4.000000E-01   4.000000E-01   4.000000E-01   4.000000E-01   4.000000E-01   4.000000E-01   4.000000E-01   4.000000E-01   4.000000E-01   4.000000E-01   4.000000E-01   4.000000E-01   4.000000E-01   4.000000E-01   4.000000E-01   4.000000E-01   4.000000E-01   4.000000E-01   4.000000E-01   4.000000E-01   4.000000E-01   4.000000E-01   4.000000E-01   4.000000E-01   4.000000E-01   4.000000E-01   4.000000E-01   4.000000E-01   4.000000E-01   4.000000E-01   4.000000E-01   4.000000E-01   4.000000E-01   4.000000E-01   4.000000E-01   4.000000E-01   4.000000E-01   4.000000E-01   4.000000E-01   4.000000E-01   4.000000E-01   4.000000E-01   4.000000E-01   4.000000E-01   4.000000E-01   4.000000E-01   4.000000E-01   4.000000E-01   4.000000E-01   4.000000E-01   4.000000E-01   4.000000E-01   4.000000E-01   4.000000E-01   4.000000E-01   4.000000E-01   4.000000E-01   4.000000E-01   4.000000E-01   4.000000E-01   4.000000E-01   4.000000E-01   4.000000E-01   4.000000E-01   4.000000E-01   4.000000E-01   4.000000E-01   4.000000E-01   4.000000E-01   4.000000E-01   4.000000E-01   4.000000E-01   4.000000E-01   4.000000E-01   4.000000E-01   4.000000E-01   4.000000E-01   4.000000E-01   4.000000E-01   4.000000E-01   4.000000E-01   4.000000E-01   4.000000E-01   4.000000E-01   4.000000E-01   4.000000E-01   4.000000E-01   4.000000E-01   4.000000E-01   4.000000E-01   4.000000E-01   4.000000E-01   4.000000E-01   4.000000E-01   4.000000E-01   4.000000E-01   4.000000E-01   4.000000E-01   4.000000E-01   4.000000E-01   4.000000E-01   4.000000E-01   4.000000E-01   4.000000E-01   4.000000E-01   4.000000E-01   4.000000E-01   4.000000E-01   4.000000E-01   4.000000E-01   4.000000E-01   4.000000E-01   4.000000E-01   4.000000E-01   4.000000E-01   4.000000E-01   4.000000E-01   4.000000E-01   4.000000E-01   4.000000E-01   4.000000E-01   4.000000E-01   4.000000E-01   4.000000E-01   4.000000E-01   4.000000E-01   4.000000E-01   4.000000E-01   4.000000E-01   4.000000E-01   4.000000E-01   4.000000E-01   4.000000E-01   4.000000E-01   4.000000E-01   4.000000E-01   4.000000E-01   4.000000E-01   4.000000E-01   4.000000E-01   4.000000E-01   4.000000E-01   4.000000E-01   4.000000E-01   4.000000E-01   4.000000E-01   4.000000E-01   4.000000E-01   4.000000E-01   4.000000E-01   4.000000E-01   4.000000E-01   4.000000E-01   4.000000E-01   4.000000E-01   4.000000E-01   4.000000E-01   4.000000E-01   4.000000E-01   4.000000E-01   4.000000E-01   4.000000E-01   4.000000E-01   4.000000E-01   4.000000E-01   4.000000E-01   4.000000E-01   4.000000E-01   4.000000E-01   4.000000E-01   4.000000E-01   4.000000E-01   4.000000E-01   4.000000E-01   4.000000E-01   4.000000E-01   4.000000E-01   4.000000E-01   4.000000E-01   4.000000E-01   4.000000E-01   4.000000E-01   4.000000E-01   4.000000E-01   4.000000E-01   4.000000E-01   4.000000E-01   4.000000E-01   4.000000E-01   4.000000E-01   4.000000E-01   4.000000E-01   4.000000E-01   4.000000E-01   4.000000E-01   4.000000E-01   4.000000E-01   4.000000E-01   4.000000E-01   4.000000E-01   4.000000E-01   4.000000E-01   4.000000E-01   4.000000E-01   4.000000E-01   4.000000E-01   4.000000E-01   4.000000E-01   4.000000E-01   4.000000E-01   4.000000E-01   4.000000E-01   4.000000E-01   4.000000E-01   4.000000E-01   4.000000E-01   4.000000E-01   4.000000E-01   4.000000E-01   4.000000E-01   4.000000E-01   4.000000E-01   4.000000E-01   4.000000E-01   4.000000E-01   4.000000E-01   4.000000E-01   4.000000E-01   4.000000E-01   4.000000E-01   4.000000E-01   4.000000E-01   4.000000E-01   4.000000E-01   4.000000E-01   4.000000E-01   4.000000E-01   4.000000E-01   4.000000E-01   4.000000E-01   4.000000E-01   4.000000E-01   4.000000E-01   4.000000E-01   4.000000E-01   4.000000E-01   4.000000E-01   4.000000E-01   4.000000E-01   4.000000E-01   4.000000E-01   4.000000E-01   4.000000E-01   4.000000E-01   4.000000E-01   4.000000E-01   4.000000E-01   4.000000E-01   4.000000E-01   4.000000E-01   4.000000E-01   4.000000E-01   4.000000E-01   4.000000E-01   4.000000E-01   4.000000E-01   4.000000E-01   4.000000E-01   4.000000E-01   4.000000E-01   4.000000E-01   4.000000E-01   4.000000E-01   4.000000E-01   4.000000E-01   4.000000E-01   4.000000E-01   4.000000E-01   4.000000E-01   4.000000E-01   4.000000E-01   4.000000E-01   4.000000E-01   4.000000E-01   4.000000E-01   4.000000E-01   4.000000E-01   4.000000E-01   4.000000E-01   4.000000E-01   4.000000E-01   4.000000E-01   4.000000E-01   4.000000E-01   4.000000E-01   4.000000E-01   4.000000E-01   4.000000E-01   4.000000E-01   4.000000E-01   4.000000E-01   4.000000E-01   4.000000E-01   4.000000E-01   4.000000E-01   4.000000E-01   4.000000E-01   4.000000E-01   4.000000E-01   4.000000E-01   4.000000E-01   4.000000E-01   4.000000E-01   4.000000E-01   4.000000E-01   4.000000E-01   4.000000E-01   4.000000E-01   4.000000E-01   4.000000E-01   4.000000E-01   4.000000E-01   4.000000E-01   4.000000E-01   4.000000E-01   4.000000E-01   4.000000E-01   4.000000E-01   4.000000E-01   4.000000E-01   4.000000E-01   4.000000E-01   4.000000E-01   4.000000E-01   4.000000E-01   4.000000E-01   4.000000E-01   4.000000E-01   4.000000E-01   4.000000E-01   4.000000E-01   4.000000E-01   4.000000E-01   4.000000E-01   4.000000E-01   4.000000E-01   4.000000E-01   4.000000E-01   4.000000E-01   