<?xml version="1.0"?>
<!-- Time =  3.0025829269476784E-01s -->
<VTKFile type="PolyData" version="0.1" byte_order="LittleEndian">
<PolyData>
<Piece NumberOfPoints="0000028800" NumberOfVerts="0" NumberOfLines="0" NumberOfStrips="0" NumberOfPolys="0">
<Points>
<DataArray type="Float32" Name="Position" NumberOfComponents="3" format="ascii">
  7.385151E-01   1.982194E-01   5.417820E-01   1.131323E+00   1.995959E-01   4.710394E-01   1.424849E+00   2.016286E-01   1.997901E-01   2.224481E+00   1.987340E-01   2.004954E-01   2.442436E+00   1.995788E-01   5.561739E-01   3.249863E+00   1.999849E-01   5.548545E-01   3.676925E+00   1.991554E-01   5.166856E-01   3.983711E+00   1.966100E-01   8.008153E-01   4.602589E+00   1.998241E-01   1.997691E-01   6.050017E+00   2.001448E-01   1.517248E+00   6.818740E+00   2.620445E-01   5.202249E-01   4.732019E+00   5.520731E+00   2.569537E+00   4.657250E+00   4.071959E+00   1.889491E+00   4.655999E+00   6.056187E+00   2.267586E+00   6.567931E+00   8.363593E+00   2.135599E+00   4.321050E+00   5.544271E+00   4.060200E+00   5.031628E+00   6.381355E+00   2.999713E+00   9.933667E+00   7.213636E+00   3.460644E+00   8.848357E+00   8.164586E+00   2.707074E+00   6.463721E+00   7.962702E+00   2.267246E+00   9.209306E+00   6.428644E+00   1.781099E+00   8.625432E+00   2.012838E-01   1.140165E+00   1.042002E+01   1.989761E-01   1.990585E-01   1.070112E+01   1.971194E-01   5.429447E-01   1.158080E+01   1.997644E-01   8.898063E-01   1.198986E+01   1.990967E-01   8.882343E-01   1.302893E+01   1.996674E-01   5.453735E-01   1.322720E+01   1.996326E-01   1.990788E-01   1.343370E+01   1.999081E-01   5.457839E-01   1.391185E+01   1.965430E-01   4.498559E-01   1.413780E+01   1.958728E-01   7.791250E-01   1.995365E-01   1.979537E-01   8.455735E-01   9.868942E-01   1.995285E-01   8.625180E-01   1.556704E+00   1.982905E-01   1.108187E+00   1.826496E+00   1.992587E-01   8.132527E-01   2.218288E+00   1.988903E-01   8.877494E-01   2.613962E+00   1.982748E-01   9.413342E-01   3.432728E+00   1.996043E-01   1.996102E-01   3.493814E+00   1.994078E-01   8.718666E-01   3.919275E+00   1.988268E-01   1.992456E-01   5.169891E+00   1.991785E-01   1.255097E+00   5.012320E+00   1.997309E-01   1.999850E-01   5.189157E+00   3.596312E+00   1.458923E+00   4.772445E+00   6.676427E+00   2.799345E+00   6.375800E+00   6.358727E+00   2.293394E+00   4.463881E+00   2.898130E+00   3.032079E+00   4.928262E+00   6.604084E+00   1.751603E+00   5.277357E+00   7.287499E+00   3.218990E+00   4.358007E+00   3.285661E+00   3.013584E+00   8.949052E+00   6.972650E+00   1.723257E+00   4.830776E+00   6.341273E+00   2.491405E+00   9.274936E+00   3.996501E+00   1.384724E+00   8.655978E+00   2.011270E-01   4.979775E-01   8.907572E+00   1.977043E-01   8.113645E-01   1.112557E+01   1.974830E-01   2.000533E-01   1.123818E+01   1.991311E-01   1.101684E+00   1.200615E+01   1.982294E-01   1.993299E-01   1.239420E+01   1.988865E-01   8.966981E-01   1.298190E+01   1.981530E-01   9.418766E-01   1.337946E+01   1.997367E-01   9.854103E-01   1.373814E+01   1.987580E-01   8.092195E-01   1.410973E+01   5.309240E-01   5.658988E-01   1.480114E+01   1.981640E-01   6.306512E-01   3.866315E-01   3.852411E-01   5.477062E-01   1.437098E+00   1.967517E-01   7.269307E-01   1.688641E+00   4.144437E-01   5.066218E-01   1.824593E+00   1.990238E-01   1.993426E-01   2.083527E+00   3.757881E-01   5.557343E-01   3.032888E+00   1.990324E-01   1.999840E-01   3.676511E+00   5.162237E-01   1.999648E-01   4.540302E+00   1.995986E-01   8.477827E-01   5.575285E+00   2.004617E-01   5.722311E-01   6.501227E+00   2.217963E-01   8.164738E-01   6.795850E+00   7.416431E-01   2.021116E-01   4.906117E+00   5.060627E+00   2.373802E+00   5.624222E+00   3.234893E+00   1.809972E+00   4.430075E+00   4.998623E+00   2.306290E+00   5.058738E+00   5.266678E+00   1.646373E+00   5.781168E+00   7.633548E+00   2.336087E+00   5.092763E+00   6.546781E+00   2.191510E+00   6.482416E+00   8.174909E+00   1.785582E+00   7.640491E+00   1.124966E+00   3.306380E-01   7.667874E+00   7.590374E+00   2.068345E+00   8.386737E+00   2.098134E-01   1.992791E-01   5.921413E+00   6.427361E+00   2.306011E+00   9.574204E+00   1.978304E-01   1.991690E-01   1.029552E+01   1.994105E-01   5.783158E-01   1.152482E+01   1.988842E-01   1.986305E-01   1.220470E+01   2.011530E-01   5.455171E-01   1.262938E+01   1.996190E-01   5.566859E-01   1.301076E+01   5.441630E-01   1.992809E-01   1.335126E+01   5.905335E-01   4.013660E-01   1.361537E+01   2.937057E-01   1.999230E-01   1.442877E+01   2.916199E-01   5.225904E-01   1.983545E-01   4.170362E-01   1.981115E-01   5.302276E-01   1.960789E-01   1.995083E-01   1.238679E+00   5.443485E-01   2.884192E-01   1.613146E+00   6.580309E-01   1.994228E-01   2.025335E+00   5.444469E-01   1.980799E-01   2.624187E+00   1.982255E-01   1.999433E-01   3.224288E+00   5.268402E-01   3.257959E-01   4.119532E+00   3.089560E-01   1.159536E+00   4.260585E+00   4.067771E-01   1.992976E-01   5.593142E+00   1.992521E-01   1.600521E+00   5.951456E+00   2.004346E-01   1.998237E-01   4.659455E+00   4.509293E+00   1.785474E+00   4.728734E+00   3.331610E+00   2.491481E+00   5.710216E+00   6.877539E+00   2.616168E+00   4.103233E+00   4.741873E+00   1.703414E+00   5.098106E+00   4.670340E+00   9.171215E-01   8.275439E+00   7.778663E+00   1.713386E+00   1.057062E+01   6.210744E+00   3.169342E+00   9.621786E+00   3.166844E+00   1.440367E+00   8.272477E+00   8.173089E+00   2.320724E+00   5.095632E+00   5.757255E+00   2.133733E+00   8.199617E+00   8.841713E-01   8.972177E-01   8.836221E+00   1.975295E-01   1.480949E+00   9.614702E+00   1.995630E-01   7.316267E-01   1.031686E+01   2.913876E-01   1.251701E+00   1.175877E+01   1.985185E-01   5.218451E-01   1.240590E+01   1.988030E-01   1.997161E-01   1.281381E+01   1.975795E-01   1.998837E-01   1.328283E+01   9.286780E-01   1.994183E-01   1.365165E+01   7.612064E-01   1.999317E-01   1.422002E+01   1.990757E-01   1.970714E-01   1.464644E+01   1.996529E-01   1.998424E-01   8.561319E-01   5.795862E-01   5.359908E-01   8.914762E-01   3.669859E-01   1.992655E-01   1.519491E+00   7.700013E-01   5.742064E-01   1.919562E+00   7.395084E-01   5.283846E-01   2.602965E+00   5.656037E-01   5.562046E-01   2.843184E+00   1.999572E-01   5.699710E-01   3.476001E+00   5.224531E-01   6.366342E-01   4.285532E+00   1.988797E-01   5.393691E-01   5.428862E+00   1.983695E-01   1.997174E-01   6.471653E+00   1.120739E+00   1.123348E+00   6.446816E+00   2.014970E-01   2.029379E-01   4.906316E+00   6.204908E+00   1.882524E+00   5.837859E+00   6.926943E+00   1.604347E+00   4.354974E+00   5.022316E+00   3.056373E+00   4.477989E+00   5.913876E+00   3.305420E+00   4.437849E+00   5.534020E+00   3.469149E+00   9.961329E+00   6.184994E+00   2.416816E+00   6.330422E+00   8.282779E+00   2.480981E+00   8.630544E+00   7.940451E+00   2.446835E+00   8.571440E+00   7.601580E+00   2.934328E+00   7.925482E+00   7.698622E+00   1.146698E+00   8.471346E+00   3.718649E-01   8.116184E-01   8.999152E+00   1.994787E-01   1.991937E-01   9.882634E+00   1.992992E-01   1.033599E+00   1.135465E+01   1.982417E-01   5.600144E-01   1.196551E+01   5.156745E-01   6.456876E-01   1.243181E+01   5.412503E-01   6.198918E-01   1.286692E+01   5.642806E-01   5.718974E-01   1.347003E+01   7.946900E-01   7.235211E-01   1.395625E+01   5.021130E-01   1.983379E-01   1.443277E+01   5.377013E-01   1.999319E-01   1.997830E-01   6.204631E-01   8.108790E-01   5.067250E-01   7.624067E-01   5.973414E-01   1.221714E+00   5.286193E-01   6.877039E-01   1.769535E+00   8.767001E-01   8.701509E-01   2.168965E+00   8.488520E-01   8.205114E-01   2.958748E+00   7.472714E-01   5.643800E-01   3.213023E+00   7.102826E-01   8.707317E-01   3.849391E+00   5.528591E-01   9.124897E-01   4.805976E+00   1.989410E-01   5.440218E-01   5.862964E+00   1.985454E-01   8.510008E-01   6.213192E+00   2.002876E-01   5.398602E-01   6.591311E+00   7.760019E+00   1.718772E+00   4.937299E+00   4.589327E+00   1.324885E+00   6.117804E+00   7.258913E+00   1.343711E+00   4.573522E+00   5.708377E+00   1.245471E+00   4.416979E+00   4.976385E+00   1.793292E+00   7.005091E+00   7.263613E+00   1.804358E+00   9.204713E+00   7.109533E+00   1.304142E+00   9.079047E+00   7.061360E+00   2.217335E+00   9.375998E+00   5.802055E+00   2.114456E+00   5.373959E+00   5.586679E+00   1.491363E+00   7.971171E+00   1.348428E+00   2.158292E-01   9.287019E+00   1.998146E-01   4.765010E-01   1.021741E+01   5.425785E-01   1.992753E-01   1.092130E+01   2.681699E-01   8.683717E-01   1.132261E+01   5.437526E-01   2.016715E-01   1.196855E+01   8.362174E-01   8.831579E-01   1.268855E+01   8.457775E-01   7.928004E-01   1.312507E+01   8.437369E-01   9.177538E-01   1.447764E+01   6.850486E-01   5.689908E-01   1.445334E+01   7.287123E-01   1.096126E+00   1.480180E+01   9.149109E-01   5.959604E-01   5.619670E-01   5.895579E-01   2.419351E-01   9.065636E-01   7.867494E-01   1.983893E-01   1.139639E+00   8.761926E-01   5.095212E-01   1.875719E+00   9.597333E-01   1.986943E-01   2.425107E+00   5.442596E-01   1.989473E-01   2.827815E+00   5.413275E-01   2.000051E-01   3.440447E+00   8.388654E-01   2.000056E-01   5.001642E+00   1.992042E-01   8.925809E-01   5.894732E+00   4.428158E-01   5.362961E-01   6.399112E+00   1.202597E+00   1.526825E+00   6.198620E+00   5.152039E-01   2.023148E-01   6.372489E+00   1.483884E+00   8.100246E-01   6.776947E+00   1.063679E+00   4.530927E-01   5.325559E+00   2.468010E+00   2.507299E+00   4.753542E+00   5.018844E+00   2.006937E+00   8.446476E+00   6.483994E+00   1.041604E+00   9.772727E+00   5.212075E+00   1.280654E+00   1.036825E+01   4.858788E+00   2.379557E+00   5.802008E+00   6.128020E+00   1.664729E+00   7.952377E+00   7.275875E+00   1.821551E+00   8.307781E+00   1.543299E+00   1.160150E+00   8.976445E+00   4.518975E-01   5.073026E-01   1.001971E+01   1.969334E-01   2.009362E-01   1.018762E+01   4.164979E-01   8.956373E-01   1.102816E+01   4.248265E-01   5.161929E-01   1.176625E+01   5.166933E-01  
[...]
<PointData Scalars="Diameter" Vectors="Velocity">
<DataArray type="Float32" Name="Diameter" format="ascii">
  4.000000E-01   4.000000E-01   4.000000E-01   4.000000E-01   4.000000E-01   4.000000E-01   4.000000E-01   4.000000E-01   4.000000E-01   4.000000E-01   4.000000E-01   4.000000E-01   4.000000E-01   4.000000E-01   4.000000E-01   4.000000E-01   4.000000E-01   4.000000E-01   4.000000E-01   4.000000E-01   4.000000E-01   4.000000E-01   4.000000E-01   4.000000E-01   4.000000E-01   4.000000E-01   4.000000E-01   4.000000E-01   4.000000E-01   4.000000E-01   4.000000E-01   4.000000E-01   4.000000E-01   4.000000E-01   4.000000E-01   4.000000E-01   4.000000E-01   4.000000E-01   4.000000E-01   4.000000E-01   4.000000E-01   4.000000E-01   4.000000E-01   4.000000E-01   4.000000E-01   4.000000E-01   4.000000E-01   4.000000E-01   4.000000E-01   4.000000E-01   4.000000E-01   4.000000E-01   4.000000E-01   4.000000E-01   4.000000E-01   4.000000E-01   4.000000E-01   4.000000E-01   4.000000E-01   4.000000E-01   4.000000E-01   4.000000E-01   4.000000E-01   4.000000E-01   4.000000E-01   4.000000E-01   4.000000E-01   4.000000E-01   4.000000E-01   4.000000E-01   4.000000E-01   4.000000E-01   4.000000E-01   4.000000E-01   4.000000E-01   4.000000E-01   4.000000E-01   4.000000E-01   4.000000E-01   4.000000E-01   4.000000E-01   4.000000E-01   4.000000E-01   4.000000E-01   4.000000E-01   4.000000E-01   4.000000E-01   4.000000E-01   4.000000E-01   4.000000E-01   4.000000E-01   4.000000E-01   4.000000E-01   4.000000E-01   4.000000E-01   4.000000E-01   4.000000E-01   4.000000E-01   4.000000E-01   4.000000E-01   4.000000E-01   4.000000E-01   4.000000E-01   4.000000E-01   4.000000E-01   4.000000E-01   4.000000E-01   4.000000E-01   4.000000E-01   4.000000E-01   4.000000E-01   4.000000E-01   4.000000E-01   4.000000E-01   4.000000E-01   4.000000E-01   4.000000E-01   4.000000E-01   4.000000E-01   4.000000E-01   4.000000E-01   4.000000E-01   4.000000E-01   4.000000E-01   4.000000E-01   4.000000E-01   4.000000E-01   4.000000E-01   4.000000E-01   4.000000E-01   4.000000E-01   4.000000E-01   4.000000E-01   4.000000E-01   4.000000E-01   4.000000E-01   4.000000E-01   4.000000E-01   4.000000E-01   4.000000E-01   4.000000E-01   4.000000E-01   4.000000E-01   4.000000E-01   4.000000E-01   4.000000E-01   4.000000E-01   4.000000E-01   4.000000E-01   4.000000E-01   4.000000E-01   4.000000E-01   4.000000E-01   4.000000E-01   4.000000E-01   4.000000E-01   4.000000E-01   4.000000E-01   4.000000E-01   4.000000E-01   4.000000E-01   4.000000E-01   4.000000E-01   4.000000E-01   4.000000E-01   4.000000E-01   4.000000E-01   4.000000E-01   4.000000E-01   4.000000E-01   4.000000E-01   4.000000E-01   4.000000E-01   4.000000E-01   4.000000E-01   4.000000E-01   4.000000E-01   4.000000E-01   4.000000E-01   4.000000E-01   4.000000E-01   4.000000E-01   4.000000E-01   4.000000E-01   4.000000E-01   4.000000E-01   4.000000E-01   4.000000E-01   4.000000E-01   4.000000E-01   4.000000E-01   4.000000E-01   4.000000E-01   4.000000E-01   4.000000E-01   4.000000E-01   4.000000E-01   4.000000E-01   4.000000E-01   4.000000E-01   4.000000E-01   4.000000E-01   4.000000E-01   4.000000E-01   4.000000E-01   4.000000E-01   4.000000E-01   4.000000E-01   4.000000E-01   4.000000E-01   4.000000E-01   4.000000E-01   4.000000E-01   4.000000E-01   4.000000E-01   4.000000E-01   4.000000E-01   4.000000E-01   4.000000E-01   4.000000E-01   4.000000E-01   4.000000E-01   4.000000E-01   4.000000E-01   4.000000E-01   4.000000E-01   4.000000E-01   4.000000E-01   4.000000E-01   4.000000E-01   4.000000E-01   4.000000E-01   4.000000E-01   4.000000E-01   4.000000E-01   4.000000E-01   4.000000E-01   4.000000E-01   4.000000E-01   4.000000E-01   4.000000E-01   4.000000E-01   4.000000E-01   4.000000E-01   4.000000E-01   4.000000E-01   4.000000E-01   4.000000E-01   4.000000E-01   4.000000E-01   4.000000E-01   4.000000E-01   4.000000E-01   4.000000E-01   4.000000E-01   4.000000E-01   4.000000E-01   4.000000E-01   4.000000E-01   4.000000E-01   4.000000E-01   4.000000E-01   4.000000E-01   4.000000E-01   4.000000E-01   4.000000E-01   4.000000E-01   4.000000E-01   4.000000E-01   4.000000E-01   4.000000E-01   4.000000E-01   4.000000E-01   4.000000E-01   4.000000E-01   4.000000E-01   4.000000E-01   4.000000E-01   4.000000E-01   4.000000E-01   4.000000E-01   4.000000E-01   4.000000E-01   4.000000E-01   4.000000E-01   4.000000E-01   4.000000E-01   4.000000E-01   4.000000E-01   4.000000E-01   4.000000E-01   4.000000E-01   4.000000E-01   4.000000E-01   4.000000E-01   4.000000E-01   4.000000E-01   4.000000E-01   4.000000E-01   4.000000E-01   4.000000E-01   4.000000E-01   4.000000E-01   4.000000E-01   4.000000E-01   4.000000E-01   4.000000E-01   4.000000E-01   4.000000E-01   4.000000E-01   4.000000E-01   4.000000E-01   4.000000E-01   4.000000E-01   4.000000E-01   4.000000E-01   4.000000E-01   4.000000E-01   4.000000E-01   4.000000E-01   4.000000E-01   4.000000E-01   4.000000E-01   4.000000E-01   4.000000E-01   4.000000E-01   4.000000E-01   4.000000E-01   4.000000E-01   4.000000E-01   4.000000E-01   4.000000E-01   4.000000E-01   4.000000E-01   4.000000E-01   4.000000E-01   4.000000E-01   4.000000E-01   4.000000E-01   4.000000E-01   4.000000E-01   4.000000E-01   4.000000E-01   4.000000E-01   4.000000E-01   4.000000E-01   4.000000E-01   4.000000E-01   4.000000E-01   4.000000E-01   4.000000E-01   4.000000E-01   4.000000E-01   4.000000E-01   4.000000E-01   4.000000E-01   4.000000E-01   4.000000E-01   4.000000E-01   4.000000E-01   4.000000E-01   4.000000E-01   4.000000E-01   4.000000E-01   4.000000E-01   4.000000E-01   4.000000E-01   4.000000E-01   4.000000E-01   4.000000E-01   4.000000E-01   4.000000E-01   4.000000E-01   4.000000E-01   4.000000E-01   4.000000E-01   4.000000E-01   4.000000E-01   4.000000E-01   4.000000E-01   4.000000E-01   4.000000E-01   4.000000E-01   4.000000E-01   4.000000E-01   4.000000E-01   4.000000E-01   4.000000E-01   4.000000E-01   4.000000E-01   4.000000E-01   4.000000E-01   4.000000E-01   4.000000E-01   4.000000E-01   4.000000E-01   4.000000E-01   4.000000E-01   4.000000E-01   4.000000E-01   4.000000E-01   4.000000E-01   4.000000E-01   4.000000E-01   4.000000E-01   4.000000E-01   4.000000E-01   4.000000E-01   4.000000E-01   4.000000E-01   4.000000E-01   4.000000E-01   4.000000E-01   4.000000E-01   4.000000E-01   4.000000E-01   4.000000E-01   4.000000E-01   4.000000E-01   4.000000E-01   4.000000E-01   4.000000E-01   4.000000E-01   4.000000E-01   4.000000E-01   4.000000E-01   4.000000E-01   4.000000E-01   4.000000E-01   4.000000E-01   4.000000E-01   4.000000E-01   4.000000E-01   4.000000E-01   4.000000E-01   4.000000E-01   4.000000E-01   4.000000E-01   4.000000E-01   4.000000E-01   4.000000E-01   4.000000E-01   4.000000E-01   4.000000E-01   4.000000E-01   4.000000E-01   4.000000E-01   4.000000E-01   4.000000E-01   4.000000E-01   4.000000E-01   4.000000E-01   4.000000E-01   4.000000E-01   4.000000E-01   4.000000E-01   4.000000E-01   4.000000E-01   4.000000E-01   4.000000E-01   4.000000E-01   4.000000E-01   4.000000E-01   4.000000E-01   4.000000E-01   4.000000E-01   4.000000E-01   4.000000E-01   4.000000E-01   4.000000E-01   4.000000E-01   4.000000E-01   4.000000E-01   4.000000E-01   4.000000E-01   4.000000E-01   4.000000E-01   4.000000E-01   4.000000E-01   4.000000E-01   4.000000E-01   4.000000E-01   4.000000E-01   4.000000E-01   4.000000E-01   4.000000E-01   4.000000E-01   4.000000E-01   4.000000E-01   4.000000E-01   4.000000E-01   4.000000E-01   4.000000E-01   4.000000E-01   4.000000E-01   4.000000E-01   4.000000E-01   4.000000E-01   4.000000E-01   4.000000E-01   4.000000E-01   4.000000E-01   4.000000E-01   4.000000E-01   4.000000E-01   4.000000E-01   4.000000E-01   4.000000E-01   4.000000E-01   4.000000E-01   4.000000E-01   4.000000E-01   4.000000E-01   4.000000E-01   4.000000E-01   4.000000E-01   4.000000E-01   4.000000E-01   4.000000E-01   4.000000E-01   4.000000E-01   4.000000E-01   4.000000E-01   4.000000E-01   4.000000E-01   4.000000E-01   4.000000E-01   4.000000E-01   4.000000E-01   4.000000E-01   4.000000E-01   4.000000E-01   4.000000E-01   4.000000E-01   4.000000E-01   4.000000E-01   4.000000E-01   4.000000E-01   4.000000E-01   4.000000E-01   4.000000E-01   4.000000E-01   4.000000E-01   4.000000E-01   4.000000E-01   4.000000E-01   4.000000E-01   4.000000E-01   4.000000E-01   4.000000E-01   4.000000E-01   4.000000E-01   4.000000E-01   4.000000E-01   4.000000E-01   4.000000E-01   4.000000E-01   4.000000E-01   4.000000E-01   4.000000E-01   4.000000E-01   4.000000E-01   4.000000E-01   4.000000E-01   4.000000E-01   4.000000E-01   4.000000E-01   4.000000E-01   4.000000E-01   4.000000E-01   4.000000E-01   4.000000E-01   4.000000E-01   4.000000E-01   4.000000E-01   4.000000E-01   4.000000E-01   4.000000E-01   4.000000E-01   4.000000E-01   4.000000E-01   4.000000E-01   4.000000E-01   4.000000E-01   4.000000E-01   4.000000E-01   4.000000E-01   4.000000E-01   4.000000E-01   4.000000E-01   4.000000E-01   4.000000E-01   4.000000E-01   4.000000E-01   4.000000E-01   4.000000E-01   4.000000E-01   4.000000E-01   4.000000E-01   4.000000E-01   4.000000E-01   4.000000E-01   4.000000E-01   4.000000E-01   4.000000E-01   4.000000E-01   4.000000E-01   4.000000E-01   4.000000E-01   4.000000E-01   4.000000E-01   4.000000E-01   4.000000E-01   4.000000E-01   4.000000E-01   4.000000E-01   4.000000E-01   4.000000E-01   4.000000E-01   4.000000E-01   4.000000E-01   4.000000E-01   4.000000E-01   4.000000E-01   4.000000E-01   4.000000E-01   4.000000E-01   4.000000E-01   4.000000E-01   4.000000E-01   4.000000E-01   4.000000E-01   4.000000E-01   4.000000E-01   4.000000E-01   4.000000E-01   4.000000E-01   4.000000E-01   4.000000E-01   4.000000E-01   4.000000E-01   4.000000E-01   4.000000E-01   4.000000E-01   4.000000E-01   4.000000E-01   4.000000E-01   4.000000E-01   4.000000E-01   4.000000E-01   4.000000E-01   4.000000E-01   4.000000E-01   4.000000E-01   4.000000E-01   4.000000E-01   4.000000E-01   4.000000E-01   4.000000E-01   4.000000E-01   4.000000E-01   4.000000E-01   4.000000E-01   4.000000E-01   4.000000E-01   4.000000E-01   4.000000E-01   4.000000E-01   4.000000E-01   4.000000E-01   4.000000E-01   4.000000E-01   4.000000E-01   4.000000E-01   4.000000E-01   4.000000E-01   4.000000E-01   4.000000E-01   4.000000E-01   4.000000E-01   4.000000E-01   4.000000E-01   4.000000E-01   4.000000E-01   4.000000E-01   4.000000E-01   4.000000E-01   4.000000E-01   4.000000E-01   4.000000E-01   4.000000E-01   4.000000E-01   4.000000E-01   4.000000E-01   4.000000E-01   4.000000E-01   4.000000E-01   4.000000E-01   4.000000E-01   4.000000E-01   4.000000E-01   4.000000E-01   4.000000E-01   4.000000E-01   4.000000E-01   4.000000E-01   4.000000E-01   4.000000E-01   4.000000E-01   4.000000E-01   4.000000E-01   4.000000E-01   4.000000E-01   4.000000E-01   4.000000E-01   4.000000E-01   4.000000E-01   4.000000E-01   4.000000E-01   4.000000E-01   4.000000E-01   4.000000E-01   4.000000E-01   4.000000E-01   4.000000E-01   4.000000E-01   4.000000E-01   4.000000E-01   4.000000E-01   4.000000E-01   4.000000E-01   4.000000E-01   4.000000E-01   4.000000E-01   4.000000E-01   4.000000E-01   4.000000E-01   4.000000E-01   4.000000E-01   4.000000E-01   4.000000E-01   4.000000E-01   4.000000E-01   4.000000E-01   4.000000E-01   4.000000E-01   4.000000E-01   4.000000E-01   4.000000E-01   4.000000E-01   4.000000E-01   4.000000E-01   4.000000E-01   4.000000E-01   4.000000E-01   4.000000E-01   4.000000E-01   4.000000E-01   4.000000E-01   4.000000E-01   4.000000E-01   4.000000E-01   4.000000E-01   4.000000E-01   4.000000E-01   4.000000E-01   4.000000E-01   4.000000E-01   4.000000E-01   4.000000E-01   4.000000E-01   4.000000E-01   4.000000E-01   4.000000E-01   4.000000E-01   4.000000E-01   4.000000E-01   4.000000E-01   4.000000E-01   4.000000E-01   4.000000E-01   4.000000E-01   4.000000E-01   4.000000E-01   4.000000E-01   4.000000E-01   4.000000E-01   4.000000E-01   4.000000E-01   4.000000E-01   4.000000E-01   4.000000E-01   4.000000E-01   4.000000E-01   4.000000E-01   4.000000E-01   4.000000E-01   4.000000E-01   4.000000E-01   4.000000E-01   4.000000E-01   4.000000E-01   4.000000E-01   4.000000E-01   4.000000E-01   4.000000E-01   4.000000E-01   4.000000E-01   4.000000E-01   4.000000E-01   4.000000E-01   4.000000E-01   4.000000E-01   4.000000E-01   4.000000E-01   4.000000E-01   4.000000E-01   4.000000E-01   4.000000E-01   4.000000E-01   4.000000E-01   4.000000E-01   4.000000E-01   4.000000E-01   4.000000E-01   4.000000E-01   4.000000E-01   4.000000E-01   4.000000E-01   4.000000E-01   4.000000E-01   4.000000E-01   4.000000E-01   4.000000E-01   4.000000E-01   4.000000E-01   4.000000E-01   4.000000E-01   4.000000E-01   4.000000E-01   4.000000E-01   4.000000E-01   4.000000E-01   4.000000E-01   4.000000E-01   4.000000E-01   4.000000E-01   4.000000E-01   4.000000E-01   4.000000E-01   4.000000E-01   4.000000E-01   4.000000E-01   4.000000E-01   4.000000E-01   4.000000E-01   4.000000E-01   4.000000E-01   4.000000E-01   4.000000E-01   4.000000E-01   4.000000E-01   4.000000E-01   4.000000E-01   4.000000E-01   4.000000E-01   4.000000E-01   4.000000E-01   4.000000E-01   4.000000E-01   4.000000E-01   4.000000E-01   4.000000E-01   4.000000E-01   4.000000E-01   4.000000E-01   4.000000E-01   4.000000E-01   4.000000E-01   4.000000E-01   4.000000E-01   4.000000E-01   4.000000E-01   4.000000E-01   4.000000E-01   4.000000E-01   4.000000E-01   4.000000E-01   4.000000E-01   4.000000E-01   4.000000E-01   4.000000E-01   4.000000E-01   4.000000E-01   4.000000E-01   4.000000E-01   4.000000E-01   4.000000E-01   4.000000E-01   4.000000E-01   4.000000E-01   4.000000E-01   4.000000E-01   4.000000E-01   4.000000E-01   4.000000E-01   4.000000E-01   4.000000E-01   4.000000E-01   4.000000E-01   4.000000E-01   4.000000E-01   4.000000E-01   4.000000E-01   4.000000E-01   4.000000E-01   4.000000E-01   4.000000E-01   4.000000E-01   4.000000E-01   4.000000E-01   4.000000E-01   4.000000E-01   4.000000E-01   4.000000E-01   4.000000E-01   4.000000E-01   4.000000E-01   4.000000E-01   4.000000E-01   4.000000E-01   4.000000E-01   4.000000E-01   4.000000E-01   4.000000E-01   4.000000E-01   4.000000E-01   4.000000E-01   4.000000E-01   4.000000E-01   4.000000E-01   4.000000E-01   4.000000E-01   4.000000E-01   4.000000E-01   4.000000E-01   4.000000E-01   4.000000E-01   4.000000E-01   4.000000E-01   4.000000E-01   4.000000E-01   4.000000E-01   4.000000E-01   4.000000E-01   4.000000E-01   4.000000E-01   4.000000E-01   4.000000E-01   4.000000E-01   4.000000E-01   4.000000E-01   4.000000E-01   4.000000E-01   4.000000E-01   4.000000E-01   4.000000E-01   4.000000E-01   4.000000E-01   4.000000E-01   4.000000E-01   4.000000E-01   4.000000E-01   4.000000E-01   4.000000E-01   4.000000E-01   4.000000E-01   4.000000E-01   4.000000E-01   4.000000E-01   4.000000E-01   4.000000E-01   4.000000E-01   4.000000E-01   4.000000E-01   4.000000E-01   4.000000E-01   4.000000E-01   4.000000E-01   4.000000E-01   4.000000E-01   4.000000E-01   4.000000E-01   4.000000E-01   4.000000E-01   4.000000E-01   4.000000E-01   4.000000E-01   4.000000E-01   4.000000E-01   4.000000E-01   4.000000E-01   4.000000E-01   4.000000E-01   4.000000E-01   4.000000E-01   4.000000E-01   4.000000E-01   4.000000E-01   4.000000E-01   4.000000E-01   4.000000E-01   4.000000E-01   4.000000E-01   4.000000E-01   4.000000E-01   4.000000E-01   4.000000E-01   4.000000E-01   4.000000E-01   4.000000E-01   4.000000E-01   4.000000E-01   4.000000E-01   4.000000E-01   4.000000E-01   4.000000E-01   4.000000E-01   4.000000E-01   4.000000E-01   4.000000E-01   4.000000E-01   4.000000E-01   4.000000E-01   4.000000E-01   4.000000E-01   4.000000E-01   4.000000E-01   4.000000E-01   4.000000E-01   4.000000E-01   4.000000E-01   4.000000E-01   4.000000E-01   4.000000E-01   4.000000E-01   4.000000E-01   4.000000E-01   4.000000E-01   4.000000E-01   4.000000E-01   4.000000E-01   4.000000E-01   4.000000E-01   4.000000E-01   4.000000E-01   4.000000E-01   4.000000E-01   4.000000E-01   4.000000E-01   4.000000E-01   4.000000E-01   4.000000E-01   4.000000E-01   4.000000E-01   4.000000E-01   4.000000E-01   4.000000E-01   4.000000E-01   4.000000E-01   4.000000E-01   4.000000E-01   4.000000E-01   4.000000E-01   4.000000E-01   4.000000E-01   4.000000E-01   4.000000E-01   4.000000E-01   4.000000E-01   4.000000E-01   4.000000E-01   4.000000E-01   4.000000E-01   4.000000E-01   4.000000E-01   4.000000E-01   4.000000E-01   4.000000E-01   4.000000E-01   4.000000E-01   4.000000E-01   4.000000E-01   4.000000E-01   4.000000E-01   4.000000E-01   4.000000E-01   4.000000E-01   4.000000E-01   4.000000E-01   4.000000E-01   4.000000E-01   4.000000E-01   4.000000E-01   4.000000E-01   4.000000E-01   4.000000E-01   4.000000E-01   4.000000E-01   4.000000E-01   4.000000E-01   4.000000E-01   4.000000E-01   4.000000E-01   4.000000E-01   4.000000E-01   4.000000E-01   4.000000E-01   4.000000E-01   4.000000E-01   4.000000E-01   4.000000E-01   4.000000E-01   4.000000E-01   4.000000E-01   4.000000E-01   4.000000E-01   4.000000E-01   4.000000E-01   4.000000E-01   4.000000E-01   4.000000E-01   4.000000E-01   4.000000E-01   4.000000E-01   4.000000E-01   4.000000E-01   4.000000E-01   4.000000E-01   4.000000E-01   4.000000E-01   4.000000E-01   4.000000E-01   4.000000E-01   4.000000E-01   4.000000E-01   4.000000E-01   4.000000E-01   4.000000E-01   4.000000E-01   4.000000E-01   4.000000E-01   4.000000E-01   4.000000E-01   4.000000E-01   4.000000E-01   4.000000E-01   4.000000E-01   4.000000E-01   4.000000E-01   4.000000E-01   4.000000E-01   4.000000E-01   4.000000E-01   4.000000E-01   4.000000E-01   4.000000E-01   4.000000E-01   4.000000E-01   4.000000E-01   4.000000E-01   4.000000E-01   4.000000E-01   4.000000E-01   4.000000E-01   4.000000E-01   4.000000E-01   4.000000E-01   4.000000E-01   4.000000E-01   4.000000E-01   4.000000E-01   4.000000E-01   4.000000E-01   4.000000E-01   4.000000E-01   4.000000E-01   4.000000E-01   4.000000E-01   4.000000E-01   4.000000E-01   4.000000E-01   4.000000E-01   4.000000E-01   4.000000E-01   4.000000E-01   4.000000E-01   4.000000E-01   4.000000E-01   4.000000E-01   4.000000E-01   4.000000E-01   4.000000E-01   4.000000E-01   4.000000E-01   4.000000E-01   4.000000E-01   4.000000E-01   4.000000E-01   4.000000E-01   4.000000E-01   4.000000E-01   4.000000E-01   4.000000E-01   4.000000E-01   4.000000E-01   4.000000E-01   4.000000E-01   4.000000E-01   4.000000E-01   4.000000E-01   4.000000E-01   4.000000E-01   4.000000E-01   4.000000E-01   4.000000E-01   4.000000E-01   4.000000E-01   4.000000E-01   4.000000E-01   4.000000E-01   4.000000E-01   4.000000E-01   4.000000E-01   4.000000E-01   4.000000E-01   4.000000E-01   4.000000E-01   4.000000E-01   4.000000E-01   4.000000E-01   4.000000E-01   4.000000E-01   4.000000E-01   4.000000E-01   4.000000E-01   4.000000E-01   4.000000E-01   4.000000E-01   4.000000E-01   4.000000E-01   4.000000E-01   4.000000E-01   4.000000E-01   4.000000E-01   4.000000E-01   4.000000E-01   4.000000E-01   4.000000E-01   4.000000E-01   4.000000E-01   4.000000E-01   4.000000E-01   4.000000E-01   4.000000E-01   4.000000E-01   4.000000E-01   4.000000E-01   4.000000E-01   4.000000E-01   4.000000E-01   4.000000E-01   4.000000E-01   4.000000E-01   4.000000E-01   4.000000E-01   4.000000E-01   4.000000E-01   4.000000E-01   4.000000E-01   4.000000E-01   4.000000E-01   4.000000E-01   4.000000E-01   4.000000E-01   4.000000E-01   4.000000E-01   4.000000E-01   4.000000E-01   4.000000E-01   4.000000E-01   4.000000E-01   4.000000E-01   4.000000E-01   4.000000E-01   4.000000E-01   4.000000E-01   4.000000E-01   4.000000E-01   4.000000E-01   4.000000E-01   4.000000E-01   4.000000E-01   4.000000E-01   4.000000E-01   4.000000E-01   4.000000E-01   4.000000E-01   4.000000E-01   4.000000E-01   4.000000E-01   4.000000E-01   4.000000E-01   4.000000E-01   4.000000E-01   4.000000E-01   4.000000E-01   4.000000E-01   4.000000E-01   4.000000E-01   4.000000E-01   4.000000E-01   4.000000E-01   4.000000E-01   4.000000E-01   4.000000E-01   