<?xml version="1.0"?>
<!-- Time =  1.2006782926947484E+00s -->
<VTKFile type="PolyData" version="0.1" byte_order="LittleEndian">
<PolyData>
<Piece NumberOfPoints="0000028800" NumberOfVerts="0" NumberOfLines="0" NumberOfStrips="0" NumberOfPolys="0">
<Points>
<DataArray type="Float32" Name="Position" NumberOfComponents="3" format="ascii">
  9.061243E-01   1.973873E-01   6.808330E-01   1.420159E+00   1.986908E-01   4.996495E-01   2.393883E+00   1.993031E-01   1.995880E-01   4.801546E+00   1.988070E-01   1.998617E-01   6.217254E+00   1.998138E-01   5.887464E-01   1.276168E+00   1.055297E+01   2.586610E+00   4.160080E+00   9.138046E+00   9.234816E-01   4.014938E+00   7.882470E+00   8.652815E-01   3.033815E+00   7.450084E+00   1.413356E+00   1.110002E+00   5.552120E+00   4.954165E+00   2.785196E+00   4.804789E+00   8.758265E-01   1.991308E-01   6.649357E+00   2.946687E+00   3.936371E+00   5.944630E+00   5.834932E-01   1.240037E+00   6.683907E+00   7.035515E-01   1.248079E+00   6.101405E+00   2.482720E+00   6.169498E+00   7.689827E+00   1.996553E-01   1.265110E+01   5.482007E+00   4.248776E+00   1.233860E+01   5.592266E+00   3.100246E+00   5.409351E-01   5.187438E+00   4.956314E+00   1.217485E+01   4.794232E+00   1.882041E+00   5.133010E+00   5.626381E+00   4.780216E+00   4.365652E+00   7.591337E+00   2.255981E+00   4.885929E+00   6.655881E+00   2.431721E+00   1.052078E+01   8.614388E+00   1.429888E+00   7.554766E+00   9.732574E+00   3.417066E-01   1.017791E+01   1.989626E-01   5.896310E-01   1.210162E+01   1.992521E-01   1.998826E-01   1.236698E+01   1.947117E-01   5.379671E-01   1.324230E+01   1.996951E-01   5.650502E-01   1.385777E+01   1.943001E-01   9.800217E-01   2.542777E-01   1.960043E-01   1.074078E+00   1.320537E+00   1.992403E-01   1.051291E+00   3.111419E+00   1.969839E-01   1.255808E+00   3.457394E+00   1.973871E-01   8.097609E-01   4.107119E+00   1.979419E-01   8.922961E-01   7.084004E+00   2.184149E+00   1.332477E+00   4.592565E+00   9.766973E+00   5.285681E-01   1.738501E+00   9.613054E+00   2.741406E+00   4.693384E+00   1.004946E+01   2.599372E+00   5.965775E+00   7.940521E+00   1.142148E+00   5.377922E+00   7.050441E+00   1.926280E+00   5.755617E-01   4.599261E+00   3.506461E+00   6.490872E-01   5.562663E+00   4.383211E+00   1.263488E+00   6.177975E+00   3.478694E+00   8.207052E+00   7.731942E+00   2.005219E-01   9.349913E-01   6.937589E+00   5.282741E-01   6.911028E-01   6.063389E+00   2.992645E+00   3.816266E+00   6.452212E+00   1.011928E+00   1.271359E+01   5.469412E+00   2.895868E+00   2.270365E+00   5.790918E+00   2.564220E+00   1.283106E+01   4.219411E+00   4.170865E+00   4.848767E+00   4.872217E+00   3.237162E+00   9.217405E+00   8.402898E+00   5.749744E-01   9.160902E+00   8.383843E+00   1.074872E+00   1.123374E+01   1.513942E+01   2.806196E+00   6.815851E+00   1.672524E+01   1.866939E+00   1.012663E+01   1.984569E-01   1.162388E+00   1.263206E+01   1.986882E-01   9.690937E-01   1.314496E+01   1.995081E-01   9.527678E-01   1.370780E+01   1.992554E-01   6.096154E-01   1.466943E+01   1.982782E-01   5.695951E-01   1.980787E-01   1.922720E-01   6.800566E-01   2.311227E+00   1.968053E-01   9.205734E-01   2.597511E+00   1.998501E-01   5.490286E-01   3.448024E+00   1.987406E-01   2.250201E-01   3.742369E+00   1.979142E-01   4.956899E-01   8.264091E+00   1.427199E+01   2.072526E+00   1.905887E+00   8.425900E+00   8.811556E-01   5.269537E+00   7.190907E+00   2.445611E+00   1.989809E-01   6.122722E+00   5.768482E-01   3.921282E+00   5.164340E+00   4.447976E+00   4.516160E+00   5.049349E+00   3.371105E+00   1.520405E+00   4.774747E+00   3.234560E+00   4.944750E+00   4.945340E+00   4.527301E+00   2.038236E+00   6.599714E+00   8.313989E-01   2.163160E+00   4.733093E+00   4.634600E+00   1.873450E+00   5.009286E+00   3.471670E+00   2.466797E+00   6.455064E+00   2.089963E-01   1.401489E+00   5.629084E+00   3.322012E+00   9.473460E+00   5.592248E+00   4.254441E+00   9.551385E+00   5.019957E+00   2.600700E+00   1.868030E+00   5.991620E+00   2.299622E+00   4.651622E+00   9.597892E+00   2.607910E+00   9.233506E+00   9.540440E+00   2.592236E+00   1.259165E+01   8.651560E+00   9.781295E-01   7.809153E+00   1.577171E+01   1.964008E+00   8.070846E+00   3.024940E+00   2.107680E+00   1.130291E+01   1.995892E-01   1.984745E-01   1.150082E+01   1.989721E-01   5.448976E-01   1.307978E+01   1.992744E-01   1.997657E-01   1.409973E+01   1.983562E-01   5.319684E-01   1.983047E-01   1.977482E-01   2.223569E-01   7.374675E-01   1.994680E-01   2.453528E-01   1.681775E+00   1.972451E-01   1.987225E-01   2.793166E+00   1.980795E-01   1.998900E-01   4.042500E+00   1.987930E-01   1.999461E-01   7.170691E+00   2.582724E+00   1.135157E+00   6.756958E+00   1.196220E+01   1.077133E+00   4.730196E+00   7.324131E+00   5.492592E-01   1.215366E+01   6.906383E+00   2.251067E+00   1.374269E+01   5.265565E+00   5.440236E-01   9.797307E+00   1.091184E+01   2.740972E+00   6.020458E+00   6.206903E+00   6.504984E-01   5.128782E+00   6.784321E+00   9.489282E-01   8.223779E-01   5.326000E+00   4.708490E+00   3.560311E+00   5.987112E+00   2.838021E+00   4.432925E+00   4.658864E+00   3.363862E+00   1.299022E+01   4.821044E+00   2.586788E+00   1.206585E+01   6.152431E+00   4.019844E+00   1.480030E+01   5.071049E+00   2.764762E+00   1.048865E+01   5.112910E+00   3.677825E+00   4.313662E+00   4.665785E+00   4.467967E+00   1.107813E+01   4.822526E+00   2.110122E+00   1.018551E+01   1.277062E+01   3.819246E+00   7.413014E+00   6.383228E+00   2.061839E-01   1.014171E+01   8.780328E+00   3.457575E+00   1.076559E+01   9.490392E+00   5.967900E-01   7.312531E+00   4.917007E+00   2.161714E+00   9.931299E+00   1.997285E-01   2.005405E-01   1.170214E+01   1.990474E-01   1.994978E-01   1.268046E+01   1.987935E-01   1.995666E-01   1.387821E+01   1.970967E-01   1.996398E-01   1.480140E+01   1.971625E-01   1.953007E-01   1.217106E+00   4.367484E-01   7.459775E-01   1.134595E+00   1.995047E-01   1.999806E-01   2.203839E+00   2.701038E-01   5.438008E-01   3.175968E+00   1.998380E-01   5.256266E-01   6.851039E+00   7.587852E+00   2.057311E+00   5.384368E+00   1.760717E+01   3.540701E+00   3.430431E+00   9.163901E+00   1.147570E+00   9.508576E+00   7.523868E+00   1.102750E+00   1.112520E+01   7.754458E+00   3.929051E+00   1.177651E+01   4.294793E+00   2.893742E+00   1.743828E+00   6.148707E+00   1.992753E-01   1.388930E+00   6.057024E+00   1.499000E+00   3.056600E+00   7.051094E+00   9.586022E-01   1.230093E+00   5.758862E+00   2.701774E+00   1.515441E+00   5.768122E+00   4.701803E+00   1.374587E+01   5.477901E+00   3.166108E+00   1.972896E+00   5.683648E+00   2.858905E+00   1.306679E+01   5.647812E+00   2.836239E+00   1.350868E+01   5.787744E+00   3.081435E+00   5.071446E+00   5.437977E+00   1.997688E-01   1.083052E+01   1.018439E+01   2.426734E+00   4.091165E+00   9.973036E+00   2.857830E+00   1.198290E+01   7.572691E+00   5.206174E-01   7.045510E+00   1.003977E+01   1.020296E+00   6.048434E+00   1.856502E+01   3.387812E+00   8.965700E+00   1.991428E-01   4.862618E-01   1.207795E+01   1.978461E-01   9.046563E-01   1.347872E+01   1.989637E-01   2.068974E-01   1.438603E+01   2.117801E-01   2.150883E-01   2.453658E-01   5.506687E-01   8.937505E-01   5.508233E-01   3.016079E-01   8.278734E-01   1.666684E+00   1.975631E-01   8.516108E-01   3.785850E+00   4.242379E-01   8.216901E-01   4.419686E+00   1.988261E-01   6.424448E-01   6.107653E+00   1.712962E+01   2.642147E+00   1.679967E+00   9.241071E+00   1.311391E+00   4.415147E+00   7.789650E+00   1.703239E+00   1.106993E+01   8.004144E+00   3.041981E+00   1.752685E+00   5.351360E+00   1.997307E-01   3.315349E+00   4.569265E+00   5.333304E-01   2.283168E+00   5.393608E+00   2.592047E+00   1.113679E+00   6.221800E+00   1.260316E+00   5.542185E-01   7.890841E+00   1.992231E-01   2.471952E+00   6.020219E+00   2.012268E-01   1.997971E-01   6.527126E+00   1.584717E+00   1.410280E+01   5.445571E+00   5.981816E-01   1.311486E+01   4.730900E+00   3.589329E+00   1.268850E+01   4.795452E+00   4.693373E+00   1.353736E+00   5.013458E+00   4.130875E+00   8.428453E+00   5.605962E+00   6.790671E-01   3.253411E+00   4.546575E+00   3.117732E+00   5.299570E+00   6.772079E+00   2.201986E+00   1.173630E+01   6.875050E+00   2.331951E+00   5.423621E+00   9.589723E+00   9.997046E-01   1.039411E+01   8.584234E+00   4.638127E-01   7.088973E+00   1.356320E+01   3.513351E+00   9.245442E+00   1.981857E-01   7.719300E-01   1.438535E+01   4.759166E-01   5.484727E-01   1.429068E+01   4.185518E-01   1.176766E+00   1.456534E+01   8.302841E-01   5.318988E-01   9.578655E-01   4.884310E-01   4.124629E-01   1.410464E+00   4.885113E-01   1.991334E-01   1.813339E+00   3.790462E-01   5.287822E-01   3.744458E+00   4.647311E-01   1.984422E-01   5.548440E+00   1.989604E-01   3.272702E-01   6.540132E+00   1.065672E+01   3.454542E+00   1.662203E+00   1.030593E+01   1.562260E+00   5.084534E+00   9.825605E+00   3.897234E-01   4.635495E+00   4.632782E+00   3.708157E+00   1.382493E+01   5.447344E+00   1.986726E-01   1.764322E+00   5.522959E+00   1.681211E+00   3.493292E+00   4.938249E+00   4.223406E+00   7.788923E-01   5.928069E+00   4.283035E+00   3.484118E+00   4.648476E+00   3.488549E+00   1.337093E+01   5.414397E+00   3.042392E+00   1.414268E+01   5.838629E+00   5.408297E-01   1.370768E+01   5.704229E+00   1.550526E+00   5.149491E-01   5.112317E+00   2.781736E+00   1.280378E+01   4.452496E+00   3.656769E+00   2.760738E+00   4.830731E+00   1.957387E+00   1.165919E+01   4.699027E+00   3.088148E+00   1.057807E+01   7.429664E+00   7.059284E-01   9.786510E+00   8.481536E+00   2.617414E+00   3.532835E+00   6.893858E+00   2.472697E+00   4.070176E+00   1.217104E+01   5.319463E-01   8.686573E+00   2.007950E-01   1.997755E-01   9.266363E+00   1.996639E-01   2.005921E-01   1.348013E+01   5.201658E-01   5.428014E-01   1.408709E+01   5.358134E-01   2.011142E-01   1.480259E+01   5.406569E-01   3.935745E-01   4.667043E-01   4.894750E-01   1.991914E-01   7.581839E-01   7.598926E-01  
[...]
<PointData Scalars="Diameter" Vectors="Velocity">
<DataArray type="Float32" Name="Diameter" format="ascii">
  4.000000E-01   4.000000E-01   4.000000E-01   4.000000E-01   4.000000E-01   4.000000E-01   4.000000E-01   4.000000E-01   4.000000E-01   4.000000E-01   4.000000E-01   4.000000E-01   4.000000E-01   4.000000E-01   4.000000E-01   4.000000E-01   4.000000E-01   4.000000E-01   4.000000E-01   4.000000E-01   4.000000E-01   4.000000E-01   4.000000E-01   4.000000E-01   4.000000E-01   4.000000E-01   4.000000E-01   4.000000E-01   4.000000E-01   4.000000E-01   4.000000E-01   4.000000E-01   4.000000E-01   4.000000E-01   4.000000E-01   4.000000E-01   4.000000E-01   4.000000E-01   4.000000E-01   4.000000E-01   4.000000E-01   4.000000E-01   4.000000E-01   4.000000E-01   4.000000E-01   4.000000E-01   4.000000E-01   4.000000E-01   4.000000E-01   4.000000E-01   4.000000E-01   4.000000E-01   4.000000E-01   4.000000E-01   4.000000E-01   4.000000E-01   4.000000E-01   4.000000E-01   4.000000E-01   4.000000E-01   4.000000E-01   4.000000E-01   4.000000E-01   4.000000E-01   4.000000E-01   4.000000E-01   4.000000E-01   4.000000E-01   4.000000E-01   4.000000E-01   4.000000E-01   4.000000E-01   4.000000E-01   4.000000E-01   4.000000E-01   4.000000E-01   4.000000E-01   4.000000E-01   4.000000E-01   4.000000E-01   4.000000E-01   4.000000E-01   4.000000E-01   4.000000E-01   4.000000E-01   4.000000E-01   4.000000E-01   4.000000E-01   4.000000E-01   4.000000E-01   4.000000E-01   4.000000E-01   4.000000E-01   4.000000E-01   4.000000E-01   4.000000E-01   4.000000E-01   4.000000E-01   4.000000E-01   4.000000E-01   4.000000E-01   4.000000E-01   4.000000E-01   4.000000E-01   4.000000E-01   4.000000E-01   4.000000E-01   4.000000E-01   4.000000E-01   4.000000E-01   4.000000E-01   4.000000E-01   4.000000E-01   4.000000E-01   4.000000E-01   4.000000E-01   4.000000E-01   4.000000E-01   4.000000E-01   4.000000E-01   4.000000E-01   4.000000E-01   4.000000E-01   4.000000E-01   4.000000E-01   4.000000E-01   4.000000E-01   4.000000E-01   4.000000E-01   4.000000E-01   4.000000E-01   4.000000E-01   4.000000E-01   4.000000E-01   4.000000E-01   4.000000E-01   4.000000E-01   4.000000E-01   4.000000E-01   4.000000E-01   4.000000E-01   4.000000E-01   4.000000E-01   4.000000E-01   4.000000E-01   4.000000E-01   4.000000E-01   4.000000E-01   4.000000E-01   4.000000E-01   4.000000E-01   4.000000E-01   4.000000E-01   4.000000E-01   4.000000E-01   4.000000E-01   4.000000E-01   4.000000E-01   4.000000E-01   4.000000E-01   4.000000E-01   4.000000E-01   4.000000E-01   4.000000E-01   4.000000E-01   4.000000E-01   4.000000E-01   4.000000E-01   4.000000E-01   4.000000E-01   4.000000E-01   4.000000E-01   4.000000E-01   4.000000E-01   4.000000E-01   4.000000E-01   4.000000E-01   4.000000E-01   4.000000E-01   4.000000E-01   4.000000E-01   4.000000E-01   4.000000E-01   4.000000E-01   4.000000E-01   4.000000E-01   4.000000E-01   4.000000E-01   4.000000E-01   4.000000E-01   4.000000E-01   4.000000E-01   4.000000E-01   4.000000E-01   4.000000E-01   4.000000E-01   4.000000E-01   4.000000E-01   4.000000E-01   4.000000E-01   4.000000E-01   4.000000E-01   4.000000E-01   4.000000E-01   4.000000E-01   4.000000E-01   4.000000E-01   4.000000E-01   4.000000E-01   4.000000E-01   4.000000E-01   4.000000E-01   4.000000E-01   4.000000E-01   4.000000E-01   4.000000E-01   4.000000E-01   4.000000E-01   4.000000E-01   4.000000E-01   4.000000E-01   4.000000E-01   4.000000E-01   4.000000E-01   4.000000E-01   4.000000E-01   4.000000E-01   4.000000E-01   4.000000E-01   4.000000E-01   4.000000E-01   4.000000E-01   4.000000E-01   4.000000E-01   4.000000E-01   4.000000E-01   4.000000E-01   4.000000E-01   4.000000E-01   4.000000E-01   4.000000E-01   4.000000E-01   4.000000E-01   4.000000E-01   4.000000E-01   4.000000E-01   4.000000E-01   4.000000E-01   4.000000E-01   4.000000E-01   4.000000E-01   4.000000E-01   4.000000E-01   4.000000E-01   4.000000E-01   4.000000E-01   4.000000E-01   4.000000E-01   4.000000E-01   4.000000E-01   4.000000E-01   4.000000E-01   4.000000E-01   4.000000E-01   4.000000E-01   4.000000E-01   4.000000E-01   4.000000E-01   4.000000E-01   4.000000E-01   4.000000E-01   4.000000E-01   4.000000E-01   4.000000E-01   4.000000E-01   4.000000E-01   4.000000E-01   4.000000E-01   4.000000E-01   4.000000E-01   4.000000E-01   4.000000E-01   4.000000E-01   4.000000E-01   4.000000E-01   4.000000E-01   4.000000E-01   4.000000E-01   4.000000E-01   4.000000E-01   4.000000E-01   4.000000E-01   4.000000E-01   4.000000E-01   4.000000E-01   4.000000E-01   4.000000E-01   4.000000E-01   4.000000E-01   4.000000E-01   4.000000E-01   4.000000E-01   4.000000E-01   4.000000E-01   4.000000E-01   4.000000E-01   4.000000E-01   4.000000E-01   4.000000E-01   4.000000E-01   4.000000E-01   4.000000E-01   4.000000E-01   4.000000E-01   4.000000E-01   4.000000E-01   4.000000E-01   4.000000E-01   4.000000E-01   4.000000E-01   4.000000E-01   4.000000E-01   4.000000E-01   4.000000E-01   4.000000E-01   4.000000E-01   4.000000E-01   4.000000E-01   4.000000E-01   4.000000E-01   4.000000E-01   4.000000E-01   4.000000E-01   4.000000E-01   4.000000E-01   4.000000E-01   4.000000E-01   4.000000E-01   4.000000E-01   4.000000E-01   4.000000E-01   4.000000E-01   4.000000E-01   4.000000E-01   4.000000E-01   4.000000E-01   4.000000E-01   4.000000E-01   4.000000E-01   4.000000E-01   4.000000E-01   4.000000E-01   4.000000E-01   4.000000E-01   4.000000E-01   4.000000E-01   4.000000E-01   4.000000E-01   4.000000E-01   4.000000E-01   4.000000E-01   4.000000E-01   4.000000E-01   4.000000E-01   4.000000E-01   4.000000E-01   4.000000E-01   4.000000E-01   4.000000E-01   4.000000E-01   4.000000E-01   4.000000E-01   4.000000E-01   4.000000E-01   4.000000E-01   4.000000E-01   4.000000E-01   4.000000E-01   4.000000E-01   4.000000E-01   4.000000E-01   4.000000E-01   4.000000E-01   4.000000E-01   4.000000E-01   4.000000E-01   4.000000E-01   4.000000E-01   4.000000E-01   4.000000E-01   4.000000E-01   4.000000E-01   4.000000E-01   4.000000E-01   4.000000E-01   4.000000E-01   4.000000E-01   4.000000E-01   4.000000E-01   4.000000E-01   4.000000E-01   4.000000E-01   4.000000E-01   4.000000E-01   4.000000E-01   4.000000E-01   4.000000E-01   4.000000E-01   4.000000E-01   4.000000E-01   4.000000E-01   4.000000E-01   4.000000E-01   4.000000E-01   4.000000E-01   4.000000E-01   4.000000E-01   4.000000E-01   4.000000E-01   4.000000E-01   4.000000E-01   4.000000E-01   4.000000E-01   4.000000E-01   4.000000E-01   4.000000E-01   4.000000E-01   4.000000E-01   4.000000E-01   4.000000E-01   4.000000E-01   4.000000E-01   4.000000E-01   4.000000E-01   4.000000E-01   4.000000E-01   4.000000E-01   4.000000E-01   4.000000E-01   4.000000E-01   4.000000E-01   4.000000E-01   4.000000E-01   4.000000E-01   4.000000E-01   4.000000E-01   4.000000E-01   4.000000E-01   4.000000E-01   4.000000E-01   4.000000E-01   4.000000E-01   4.000000E-01   4.000000E-01   4.000000E-01   4.000000E-01   4.000000E-01   4.000000E-01   4.000000E-01   4.000000E-01   4.000000E-01   4.000000E-01   4.000000E-01   4.000000E-01   4.000000E-01   4.000000E-01   4.000000E-01   4.000000E-01   4.000000E-01   4.000000E-01   4.000000E-01   4.000000E-01   4.000000E-01   4.000000E-01   4.000000E-01   4.000000E-01   4.000000E-01   4.000000E-01   4.000000E-01   4.000000E-01   4.000000E-01   4.000000E-01   4.000000E-01   4.000000E-01   4.000000E-01   4.000000E-01   4.000000E-01   4.000000E-01   4.000000E-01   4.000000E-01   4.000000E-01   4.000000E-01   4.000000E-01   4.000000E-01   4.000000E-01   4.000000E-01   4.000000E-01   4.000000E-01   4.000000E-01   4.000000E-01   4.000000E-01   4.000000E-01   4.000000E-01   4.000000E-01   4.000000E-01   4.000000E-01   4.000000E-01   4.000000E-01   4.000000E-01   4.000000E-01   4.000000E-01   4.000000E-01   4.000000E-01   4.000000E-01   4.000000E-01   4.000000E-01   4.000000E-01   4.000000E-01   4.000000E-01   4.000000E-01   4.000000E-01   4.000000E-01   4.000000E-01   4.000000E-01   4.000000E-01   4.000000E-01   4.000000E-01   4.000000E-01   4.000000E-01   4.000000E-01   4.000000E-01   4.000000E-01   4.000000E-01   4.000000E-01   4.000000E-01   4.000000E-01   4.000000E-01   4.000000E-01   4.000000E-01   4.000000E-01   4.000000E-01   4.000000E-01   4.000000E-01   4.000000E-01   4.000000E-01   4.000000E-01   4.000000E-01   4.000000E-01   4.000000E-01   4.000000E-01   4.000000E-01   4.000000E-01   4.000000E-01   4.000000E-01   4.000000E-01   4.000000E-01   4.000000E-01   4.000000E-01   4.000000E-01   4.000000E-01   4.000000E-01   4.000000E-01   4.000000E-01   4.000000E-01   4.000000E-01   4.000000E-01   4.000000E-01   4.000000E-01   4.000000E-01   4.000000E-01   4.000000E-01   4.000000E-01   4.000000E-01   4.000000E-01   4.000000E-01   4.000000E-01   4.000000E-01   4.000000E-01   4.000000E-01   4.000000E-01   4.000000E-01   4.000000E-01   4.000000E-01   4.000000E-01   4.000000E-01   4.000000E-01   4.000000E-01   4.000000E-01   4.000000E-01   4.000000E-01   4.000000E-01   4.000000E-01   4.000000E-01   4.000000E-01   4.000000E-01   4.000000E-01   4.000000E-01   4.000000E-01   4.000000E-01   4.000000E-01   4.000000E-01   4.000000E-01   4.000000E-01   4.000000E-01   4.000000E-01   4.000000E-01   4.000000E-01   4.000000E-01   4.000000E-01   4.000000E-01   4.000000E-01   4.000000E-01   4.000000E-01   4.000000E-01   4.000000E-01   4.000000E-01   4.000000E-01   4.000000E-01   4.000000E-01   4.000000E-01   4.000000E-01   4.000000E-01   4.000000E-01   4.000000E-01   4.000000E-01   4.000000E-01   4.000000E-01   4.000000E-01   4.000000E-01   4.000000E-01   4.000000E-01   4.000000E-01   4.000000E-01   4.000000E-01   4.000000E-01   4.000000E-01   4.000000E-01   4.000000E-01   4.000000E-01   4.000000E-01   4.000000E-01   4.000000E-01   4.000000E-01   4.000000E-01   4.000000E-01   4.000000E-01   4.000000E-01   4.000000E-01   4.000000E-01   4.000000E-01   4.000000E-01   4.000000E-01   4.000000E-01   4.000000E-01   4.000000E-01   4.000000E-01   4.000000E-01   4.000000E-01   4.000000E-01   4.000000E-01   4.000000E-01   4.000000E-01   4.000000E-01   4.000000E-01   4.000000E-01   4.000000E-01   4.000000E-01   4.000000E-01   4.000000E-01   4.000000E-01   4.000000E-01   4.000000E-01   4.000000E-01   4.000000E-01   4.000000E-01   4.000000E-01   4.000000E-01   4.000000E-01   4.000000E-01   4.000000E-01   4.000000E-01   4.000000E-01   4.000000E-01   4.000000E-01   4.000000E-01   4.000000E-01   4.000000E-01   4.000000E-01   4.000000E-01   4.000000E-01   4.000000E-01   4.000000E-01   4.000000E-01   4.000000E-01   4.000000E-01   4.000000E-01   4.000000E-01   4.000000E-01   4.000000E-01   4.000000E-01   4.000000E-01   4.000000E-01   4.000000E-01   4.000000E-01   4.000000E-01   4.000000E-01   4.000000E-01   4.000000E-01   4.000000E-01   4.000000E-01   4.000000E-01   4.000000E-01   4.000000E-01   4.000000E-01   4.000000E-01   4.000000E-01   4.000000E-01   4.000000E-01   4.000000E-01   4.000000E-01   4.000000E-01   4.000000E-01   4.000000E-01   4.000000E-01   4.000000E-01   4.000000E-01   4.000000E-01   4.000000E-01   4.000000E-01   4.000000E-01   4.000000E-01   4.000000E-01   4.000000E-01   4.000000E-01   4.000000E-01   4.000000E-01   4.000000E-01   4.000000E-01   4.000000E-01   4.000000E-01   4.000000E-01   4.000000E-01   4.000000E-01   4.000000E-01   4.000000E-01   4.000000E-01   4.000000E-01   4.000000E-01   4.000000E-01   4.000000E-01   4.000000E-01   4.000000E-01   4.000000E-01   4.000000E-01   4.000000E-01   4.000000E-01   4.000000E-01   4.000000E-01   4.000000E-01   4.000000E-01   4.000000E-01   4.000000E-01   4.000000E-01   4.000000E-01   4.000000E-01   4.000000E-01   4.000000E-01   4.000000E-01   4.000000E-01   4.000000E-01   4.000000E-01   4.000000E-01   4.000000E-01   4.000000E-01   4.000000E-01   4.000000E-01   4.000000E-01   4.000000E-01   4.000000E-01   4.000000E-01   4.000000E-01   4.000000E-01   4.000000E-01   4.000000E-01   4.000000E-01   4.000000E-01   4.000000E-01   4.000000E-01   4.000000E-01   4.000000E-01   4.000000E-01   4.000000E-01   4.000000E-01   4.000000E-01   4.000000E-01   4.000000E-01   4.000000E-01   4.000000E-01   4.000000E-01   4.000000E-01   4.000000E-01   4.000000E-01   4.000000E-01   4.000000E-01   4.000000E-01   4.000000E-01   4.000000E-01   4.000000E-01   4.000000E-01   4.000000E-01   4.000000E-01   4.000000E-01   4.000000E-01   4.000000E-01   4.000000E-01   4.000000E-01   4.000000E-01   4.000000E-01   4.000000E-01   4.000000E-01   4.000000E-01   4.000000E-01   4.000000E-01   4.000000E-01   4.000000E-01   4.000000E-01   4.000000E-01   4.000000E-01   4.000000E-01   4.000000E-01   4.000000E-01   4.000000E-01   4.000000E-01   4.000000E-01   4.000000E-01   4.000000E-01   4.000000E-01   4.000000E-01   4.000000E-01   4.000000E-01   4.000000E-01   4.000000E-01   4.000000E-01   4.000000E-01   4.000000E-01   4.000000E-01   4.000000E-01   4.000000E-01   4.000000E-01   4.000000E-01   4.000000E-01   4.000000E-01   4.000000E-01   4.000000E-01   4.000000E-01   4.000000E-01   4.000000E-01   4.000000E-01   4.000000E-01   4.000000E-01   4.000000E-01   4.000000E-01   4.000000E-01   4.000000E-01   4.000000E-01   4.000000E-01   4.000000E-01   4.000000E-01   4.000000E-01   4.000000E-01   4.000000E-01   4.000000E-01   4.000000E-01   4.000000E-01   4.000000E-01   4.000000E-01   4.000000E-01   4.000000E-01   4.000000E-01   4.000000E-01   4.000000E-01   4.000000E-01   4.000000E-01   4.000000E-01   4.000000E-01   4.000000E-01   4.000000E-01   4.000000E-01   4.000000E-01   4.000000E-01   4.000000E-01   4.000000E-01   4.000000E-01   4.000000E-01   4.000000E-01   4.000000E-01   4.000000E-01   4.000000E-01   4.000000E-01   4.000000E-01   4.000000E-01   4.000000E-01   4.000000E-01   4.000000E-01   4.000000E-01   4.000000E-01   4.000000E-01   4.000000E-01   4.000000E-01   4.000000E-01   4.000000E-01   4.000000E-01   4.000000E-01   4.000000E-01   4.000000E-01   4.000000E-01   4.000000E-01   4.000000E-01   4.000000E-01   4.000000E-01   4.000000E-01   4.000000E-01   4.000000E-01   4.000000E-01   4.000000E-01   4.000000E-01   4.000000E-01   4.000000E-01   4.000000E-01   4.000000E-01   4.000000E-01   4.000000E-01   4.000000E-01   4.000000E-01   4.000000E-01   4.000000E-01   4.000000E-01   4.000000E-01   4.000000E-01   4.000000E-01   4.000000E-01   4.000000E-01   4.000000E-01   4.000000E-01   4.000000E-01   4.000000E-01   4.000000E-01   4.000000E-01   4.000000E-01   4.000000E-01   4.000000E-01   4.000000E-01   4.000000E-01   4.000000E-01   4.000000E-01   4.000000E-01   4.000000E-01   4.000000E-01   4.000000E-01   4.000000E-01   4.000000E-01   4.000000E-01   4.000000E-01   4.000000E-01   4.000000E-01   4.000000E-01   4.000000E-01   4.000000E-01   4.000000E-01   4.000000E-01   4.000000E-01   4.000000E-01   4.000000E-01   4.000000E-01   4.000000E-01   4.000000E-01   4.000000E-01   4.000000E-01   4.000000E-01   4.000000E-01   4.000000E-01   4.000000E-01   4.000000E-01   4.000000E-01   4.000000E-01   4.000000E-01   4.000000E-01   4.000000E-01   4.000000E-01   4.000000E-01   4.000000E-01   4.000000E-01   4.000000E-01   4.000000E-01   4.000000E-01   4.000000E-01   4.000000E-01   4.000000E-01   4.000000E-01   4.000000E-01   4.000000E-01   4.000000E-01   4.000000E-01   4.000000E-01   4.000000E-01   4.000000E-01   4.000000E-01   4.000000E-01   4.000000E-01   4.000000E-01   4.000000E-01   4.000000E-01   4.000000E-01   4.000000E-01   4.000000E-01   4.000000E-01   4.000000E-01   4.000000E-01   4.000000E-01   4.000000E-01   4.000000E-01   4.000000E-01   4.000000E-01   4.000000E-01   4.000000E-01   4.000000E-01   4.000000E-01   4.000000E-01   4.000000E-01   4.000000E-01   4.000000E-01   4.000000E-01   4.000000E-01   4.000000E-01   4.000000E-01   4.000000E-01   4.000000E-01   4.000000E-01   4.000000E-01   4.000000E-01   4.000000E-01   4.000000E-01   4.000000E-01   4.000000E-01   4.000000E-01   4.000000E-01   4.000000E-01   4.000000E-01   4.000000E-01   4.000000E-01   4.000000E-01   4.000000E-01   4.000000E-01   4.000000E-01   4.000000E-01   4.000000E-01   4.000000E-01   4.000000E-01   4.000000E-01   4.000000E-01   4.000000E-01   4.000000E-01   4.000000E-01   4.000000E-01   4.000000E-01   4.000000E-01   4.000000E-01   4.000000E-01   4.000000E-01   4.000000E-01   4.000000E-01   4.000000E-01   4.000000E-01   4.000000E-01   4.000000E-01   4.000000E-01   4.000000E-01   4.000000E-01   4.000000E-01   4.000000E-01   4.000000E-01   4.000000E-01   4.000000E-01   4.000000E-01   4.000000E-01   4.000000E-01   4.000000E-01   4.000000E-01   4.000000E-01   4.000000E-01   4.000000E-01   4.000000E-01   4.000000E-01   4.000000E-01   4.000000E-01   4.000000E-01   4.000000E-01   4.000000E-01   4.000000E-01   4.000000E-01   4.000000E-01   4.000000E-01   4.000000E-01   4.000000E-01   4.000000E-01   4.000000E-01   4.000000E-01   4.000000E-01   4.000000E-01   4.000000E-01   4.000000E-01   4.000000E-01   4.000000E-01   4.000000E-01   4.000000E-01   4.000000E-01   4.000000E-01   4.000000E-01   4.000000E-01   4.000000E-01   4.000000E-01   4.000000E-01   4.000000E-01   4.000000E-01   4.000000E-01   4.000000E-01   4.000000E-01   4.000000E-01   4.000000E-01   4.000000E-01   4.000000E-01   4.000000E-01   4.000000E-01   4.000000E-01   4.000000E-01   4.000000E-01   4.000000E-01   4.000000E-01   4.000000E-01   4.000000E-01   4.000000E-01   4.000000E-01   4.000000E-01   4.000000E-01   4.000000E-01   4.000000E-01   4.000000E-01   4.000000E-01   4.000000E-01   4.000000E-01   4.000000E-01   4.000000E-01   4.000000E-01   4.000000E-01   4.000000E-01   4.000000E-01   4.000000E-01   4.000000E-01   4.000000E-01   4.000000E-01   4.000000E-01   4.000000E-01   4.000000E-01   4.000000E-01   4.000000E-01   4.000000E-01   4.000000E-01   4.000000E-01   4.000000E-01   4.000000E-01   4.000000E-01   4.000000E-01   4.000000E-01   4.000000E-01   4.000000E-01   4.000000E-01   4.000000E-01   4.000000E-01   4.000000E-01   4.000000E-01   4.000000E-01   4.000000E-01   4.000000E-01   4.000000E-01   4.000000E-01   4.000000E-01   4.000000E-01   4.000000E-01   4.000000E-01   4.000000E-01   4.000000E-01   4.000000E-01   4.000000E-01   4.000000E-01   4.000000E-01   4.000000E-01   4.000000E-01   4.000000E-01   4.000000E-01   4.000000E-01   4.000000E-01   4.000000E-01   4.000000E-01   4.000000E-01   4.000000E-01   4.000000E-01   4.000000E-01   4.000000E-01   4.000000E-01   4.000000E-01   4.000000E-01   4.000000E-01   4.000000E-01   4.000000E-01   4.000000E-01   4.000000E-01   4.000000E-01   4.000000E-01   4.000000E-01   4.000000E-01   4.000000E-01   4.000000E-01   4.000000E-01   4.000000E-01   4.000000E-01   4.000000E-01   4.000000E-01   4.000000E-01   4.000000E-01   4.000000E-01   4.000000E-01   4.000000E-01   4.000000E-01   4.000000E-01   4.000000E-01   4.000000E-01   4.000000E-01   4.000000E-01   4.000000E-01   4.000000E-01   4.000000E-01   4.000000E-01   4.000000E-01   4.000000E-01   4.000000E-01   4.000000E-01   4.000000E-01   4.000000E-01   4.000000E-01   4.000000E-01   4.000000E-01   4.000000E-01   4.000000E-01   4.000000E-01   4.000000E-01   4.000000E-01   4.000000E-01   4.000000E-01   4.000000E-01   4.000000E-01   4.000000E-01   4.000000E-01   4.000000E-01   4.000000E-01   4.000000E-01   4.000000E-01   4.000000E-01   4.000000E-01   4.000000E-01   4.000000E-01   4.000000E-01   4.000000E-01   4.000000E-01   4.000000E-01   4.000000E-01   4.000000E-01   4.000000E-01   4.000000E-01   4.000000E-01   4.000000E-01   4.000000E-01   4.000000E-01   4.000000E-01   4.000000E-01   4.000000E-01   4.000000E-01   4.000000E-01   4.000000E-01   4.000000E-01   4.000000E-01   4.000000E-01   4.000000E-01   4.000000E-01   4.000000E-01   4.000000E-01   4.000000E-01   4.000000E-01   4.000000E-01   4.000000E-01   4.000000E-01   4.000000E-01   4.000000E-01   4.000000E-01   4.000000E-01   4.000000E-01   4.000000E-01   4.000000E-01   4.000000E-01   4.000000E-01   4.000000E-01   4.000000E-01   4.000000E-01   4.000000E-01   4.000000E-01   4.000000E-01   4.000000E-01   4.000000E-01   4.000000E-01   4.000000E-01   4.000000E-01   4.000000E-01   4.000000E-01   4.000000E-01   4.000000E-01   4.000000E-01   4.000000E-01   