<?xml version="1.0"?>
<!-- Time =  5.0045829269476849E-01s -->
<VTKFile type="PolyData" version="0.1" byte_order="LittleEndian">
<PolyData>
<Piece NumberOfPoints="0000028800" NumberOfVerts="0" NumberOfLines="0" NumberOfStrips="0" NumberOfPolys="0">
<Points>
<DataArray type="Float32" Name="Position" NumberOfComponents="3" format="ascii">
  7.650790E-01   1.965791E-01   5.614115E-01   1.289424E+00   1.974969E-01   4.344173E-01   1.712111E+00   1.991291E-01   2.018109E-01   3.043821E+00   1.992850E-01   2.042730E-01   3.096594E+00   1.982387E-01   6.218899E-01   4.430349E+00   1.994645E-01   5.220147E-01   5.299931E+00   1.976501E-01   6.825562E-01   5.501701E+00   1.998102E-01   1.027577E+00   7.097456E+00   8.075911E-01   2.087061E-01   5.454654E+00   1.300978E+01   3.959720E+00   5.486724E+00   1.694475E+01   3.067153E+00   6.681910E+00   9.379737E+00   3.547942E+00   6.861212E+00   7.712061E+00   2.503837E+00   6.543033E+00   9.764165E+00   2.722502E+00   5.526247E+00   8.263539E+00   2.718430E+00   7.174021E+00   8.619164E+00   4.012041E+00   5.516285E+00   1.142943E+01   3.695332E+00   8.522255E+00   9.593846E+00   3.786947E+00   8.908891E+00   8.382184E+00   3.413037E+00   5.562333E+00   9.305788E+00   3.356800E+00   9.207956E+00   1.006452E+01   2.336915E+00   3.258370E+00   1.035716E+01   4.112050E+00   7.469820E+00   1.275219E+00   2.573793E-01   8.076631E+00   7.781591E-01   6.120697E-01   9.815826E+00   1.995989E-01   8.455994E-01   1.021210E+01   1.991490E-01   9.221628E-01   1.221798E+01   1.965031E-01   5.523103E-01   1.282094E+01   1.955646E-01   1.985272E-01   1.299006E+01   1.989518E-01   5.597256E-01   1.365412E+01   1.976742E-01   4.877730E-01   1.391923E+01   1.993770E-01   8.343856E-01   2.062078E-01   1.948533E-01   9.530830E-01   1.078709E+00   1.994757E-01   9.667489E-01   2.084591E+00   1.987904E-01   1.121675E+00   2.395680E+00   1.989049E-01   8.664325E-01   2.793358E+00   1.976745E-01   9.218338E-01   3.463038E+00   1.980991E-01   7.813156E-01   4.963047E+00   1.995791E-01   4.675935E-01   4.726844E+00   1.975836E-01   7.898970E-01   5.860298E+00   1.994275E-01   1.999486E-01   6.995395E+00   6.948336E+00   1.644757E+00   7.211158E+00   1.896440E+00   6.906395E-01   3.493579E+00   1.379271E+01   4.135355E+00   6.481010E+00   9.771785E+00   3.640840E+00   5.914279E+00   8.279239E+00   4.805364E+00   7.128475E+00   6.590422E+00   2.913911E+00   6.599709E+00   8.951586E+00   2.938775E+00   6.265234E+00   9.133692E+00   3.708903E+00   6.877497E+00   6.327692E+00   3.170097E+00   8.635097E+00   8.798132E+00   2.127891E+00   6.315232E+00   7.140568E+00   3.036385E+00   1.138281E+01   1.174044E+01   3.921036E+00   9.894192E+00   1.390102E+01   3.187714E+00   5.877648E+00   1.083527E+01   8.640927E-01   9.080215E+00   1.997801E-01   1.998944E-01   9.067322E+00   1.994539E-01   1.325632E+00   1.067955E+01   1.975541E-01   1.991675E-01   1.116911E+01   1.981190E-01   1.143765E+00   1.214685E+01   1.936067E-01   1.179560E+00   1.305727E+01   1.991115E-01   9.535835E-01   1.343339E+01   1.979789E-01   8.197996E-01   1.394696E+01   4.640926E-01   5.365318E-01   1.466585E+01   1.967110E-01   6.434910E-01   3.283584E-01   1.971797E-01   5.732102E-01   1.764296E+00   1.970580E-01   8.039746E-01   2.012903E+00   1.975001E-01   4.912983E-01   2.303618E+00   1.985433E-01   1.990102E-01   2.707660E+00   1.967290E-01   5.325888E-01   4.169049E+00   1.963675E-01   2.068300E-01   5.363419E+00   1.984077E-01   2.037279E-01   6.825426E+00   1.850430E+00   8.928483E-01   6.703689E+00   1.308796E+01   1.859136E+00   3.955631E+00   8.822476E+00   4.326654E+00   6.322020E+00   1.203972E+01   1.575306E+00   5.154219E+00   1.350964E+01   3.967347E+00   3.029276E+00   1.076255E+01   4.471873E+00   6.872942E+00   8.121662E+00   3.198500E+00   5.327398E+00   9.378012E+00   3.788712E+00   5.612606E+00   8.684983E+00   3.174911E+00   6.862948E+00   8.720077E+00   2.742550E+00   5.551214E+00   8.145205E+00   3.256245E+00   1.150055E+01   1.086946E+01   2.871113E+00   8.178044E+00   1.056159E+01   1.487898E+00   6.105295E+00   7.732810E+00   3.741835E+00   7.580333E+00   7.011292E+00   1.458120E+00   7.476699E+00   4.410349E+00   1.280947E+00   9.879853E+00   1.977010E-01   1.987857E-01   1.083019E+01   1.982697E-01   5.691818E-01   1.147475E+01   1.991548E-01   5.491099E-01   1.235738E+01   3.556423E-01   1.996334E-01   1.259994E+01   3.045582E-01   5.125247E-01   1.337683E+01   1.993230E-01   1.992446E-01   1.424394E+01   1.984588E-01   5.625750E-01   1.980091E-01   1.986168E-01   1.977824E-01   5.972607E-01   1.994525E-01   1.992119E-01   1.431856E+00   4.837159E-01   1.966632E-01   2.008351E+00   4.672260E-01   1.986382E-01   2.705715E+00   4.098760E-01   1.974686E-01   3.442462E+00   1.987248E-01   1.995672E-01   4.666730E+00   1.991459E-01   1.994677E-01   5.914045E+00   1.991636E-01   1.070342E+00   6.644598E+00   3.496265E-01   2.009795E-01   8.037904E+00   1.410309E+01   3.013072E+00   7.210987E+00   1.174040E+01   1.364447E+00   6.580880E+00   5.581385E+00   2.036357E+00   7.011750E+00   1.054359E+01   2.726258E+00   6.101711E+00   1.025651E+01   3.362948E+00   6.190072E+00   4.677769E+00   2.273998E+00   6.866110E+00   1.018510E+01   7.368529E-01   1.058962E+01   1.245507E+01   2.961182E+00   8.404443E+00   5.745509E+00   3.707757E+00   8.567853E+00   1.163139E+01   1.962079E+00   9.775306E+00   7.739327E+00   2.918687E+00   4.623752E+00   9.506650E+00   4.921289E+00   1.046766E+01   9.315868E+00   1.164418E+00   1.083547E+01   1.002825E+01   1.889937E+00   7.447773E+00   8.981165E+00   1.317691E+00   7.208930E+00   4.825524E+00   1.359407E+00   1.007947E+01   1.995450E-01   5.451183E-01   1.128264E+01   1.991972E-01   1.993140E-01   1.199263E+01   1.937177E-01   2.205897E-01   1.269415E+01   5.721704E-01   1.988254E-01   1.308545E+01   4.930921E-01   1.982936E-01   1.396073E+01   1.965372E-01   2.088736E-01   1.469973E+01   1.953910E-01   1.971539E-01   1.020337E+00   5.010591E-01   5.448753E-01   9.840975E-01   3.001107E-01   1.992383E-01   1.731925E+00   4.801289E-01   5.217612E-01   2.371221E+00   4.101574E-01   5.300889E-01   3.543908E+00   4.629240E-01   4.812894E-01   3.818458E+00   1.983810E-01   5.993861E-01   5.018789E+00   4.693072E-01   7.609099E-01   6.728616E+00   3.603057E-01   6.805059E-01   7.288751E+00   3.516069E+00   6.308435E-01   4.899664E+00   8.849142E+00   2.582145E+00   8.241938E+00   1.102975E+01   1.112248E+00   7.093110E+00   8.984995E+00   2.060498E+00   6.392971E+00   8.264145E+00   2.570954E+00   6.581153E+00   7.080142E+00   3.964203E+00   6.469405E+00   1.014609E+01   3.461519E+00   6.018033E+00   1.124983E+01   4.401563E+00   8.719702E+00   1.064701E+01   2.891670E+00   5.425549E+00   7.769418E+00   3.036351E+00   9.199999E+00   8.746681E+00   3.503557E+00   9.497883E+00   8.409857E+00   3.327221E+00   1.210858E+01   1.134644E+01   1.730590E+00   7.068313E+00   1.400166E+01   2.213471E+00   7.370944E+00   9.802372E+00   9.877173E-01   7.384276E+00   6.879120E+00   1.778553E+00   9.328647E+00   1.994384E-01   5.699028E-01   1.045367E+01   3.289332E-01   6.007319E-01   1.115817E+01   3.156849E-01   7.635985E-01   1.184715E+01   3.431151E-01   5.609691E-01   1.282501E+01   4.798455E-01   7.904171E-01   1.367285E+01   4.690018E-01   1.973386E-01   1.433024E+01   3.413077E-01   1.996090E-01   1.988465E-01   5.862136E-01   8.950287E-01   5.502416E-01   4.824243E-01   7.367137E-01   1.399220E+00   3.528537E-01   7.844618E-01   2.392473E+00   6.858001E-01   8.173774E-01   2.813515E+00   5.368327E-01   7.126603E-01   4.117698E+00   4.475847E-01   5.138301E-01   4.631198E+00   5.299205E-01   9.870926E-01   6.234236E+00   3.441356E-01   8.796187E-01   7.477365E+00   3.969971E+00   1.134289E+00   6.676756E+00   1.216287E+01   1.913390E+00   5.343904E+00   1.513985E+01   1.699453E+00   5.544865E+00   7.785142E+00   2.596496E+00   6.780462E+00   8.005271E+00   1.684469E+00   6.626684E+00   9.210986E+00   2.635563E+00   6.660578E+00   1.113561E+01   2.248139E+00   6.595898E+00   8.595979E+00   3.224194E+00   8.173230E+00   8.673257E+00   1.314181E+00   9.555766E+00   1.160356E+01   2.665346E+00   9.246353E+00   1.132161E+01   3.505291E+00   6.051192E+00   1.207790E+01   2.645656E+00   7.719100E+00   8.869537E+00   2.026204E-01   5.371355E+00   1.198361E+01   1.898963E+00   7.521715E+00   1.767217E+00   4.581911E-01   8.800566E+00   1.994146E-01   8.949684E-01   9.480084E+00   2.107265E-01   1.998657E-01   1.030689E+01   5.819229E-01   9.840120E-01   1.152590E+01   4.415585E-01   8.619897E-01   1.213928E+01   4.434713E-01   8.681576E-01   1.445306E+01   5.324406E-01   6.259295E-01   1.441305E+01   5.521963E-01   1.121914E+00   1.480053E+01   8.597459E-01   5.933616E-01   7.079489E-01   5.699334E-01   3.005780E-01   1.074143E+00   6.934062E-01   1.991885E-01   1.380956E+00   6.702345E-01   5.435587E-01   2.373355E+00   6.271579E-01   1.975357E-01   3.277700E+00   5.629472E-01   1.999766E-01   3.806988E+00   3.605080E-01   1.991676E-01   5.074777E+00   4.734508E-01   1.989065E-01   7.197119E+00   5.760629E+00   1.591504E+00   5.718089E+00   1.174700E+01   1.744997E+00   3.520603E+00   1.612455E+01   3.328212E+00   7.514393E+00   1.409892E+01   2.625284E+00   6.221477E+00   8.313883E+00   1.213813E+00   3.933290E+00   9.791963E+00   2.591261E+00   6.150441E+00   1.503530E+01   3.591911E+00   5.606890E+00   1.416166E+01   2.862808E+00   9.005282E+00   8.882050E+00   2.747825E+00   8.184115E+00   1.110135E+01   2.032069E+00   8.168227E+00   6.611690E+00   2.526904E+00   5.768591E+00   1.134465E+01   3.140120E+00   9.978002E+00   8.408043E+00   2.369026E+00   6.848811E+00   1.625557E+01   2.243115E+00   8.677172E+00   1.298160E+01   2.274802E+00   7.084339E+00   2.929333E+00   9.174222E-01   7.419059E+00   5.144664E+00   1.610161E+00   8.576317E+00   2.108201E-01   5.641847E-01   1.027960E+01   1.969239E-01   1.994371E-01   1.163935E+01   3.800566E-01   2.000147E-01   1.202956E+01   5.857619E-01  
[...]
<PointData Scalars="Diameter" Vectors="Velocity">
<DataArray type="Float32" Name="Diameter" format="ascii">
  4.000000E-01   4.000000E-01   4.000000E-01   4.000000E-01   4.000000E-01   4.000000E-01   4.000000E-01   4.000000E-01   4.000000E-01   4.000000E-01   4.000000E-01   4.000000E-01   4.000000E-01   4.000000E-01   4.000000E-01   4.000000E-01   4.000000E-01   4.000000E-01   4.000000E-01   4.000000E-01   4.000000E-01   4.000000E-01   4.000000E-01   4.000000E-01   4.000000E-01   4.000000E-01   4.000000E-01   4.000000E-01   4.000000E-01   4.000000E-01   4.000000E-01   4.000000E-01   4.000000E-01   4.000000E-01   4.000000E-01   4.000000E-01   4.000000E-01   4.000000E-01   4.000000E-01   4.000000E-01   4.000000E-01   4.000000E-01   4.000000E-01   4.000000E-01   4.000000E-01   4.000000E-01   4.000000E-01   4.000000E-01   4.000000E-01   4.000000E-01   4.000000E-01   4.000000E-01   4.000000E-01   4.000000E-01   4.000000E-01   4.000000E-01   4.000000E-01   4.000000E-01   4.000000E-01   4.000000E-01   4.000000E-01   4.000000E-01   4.000000E-01   4.000000E-01   4.000000E-01   4.000000E-01   4.000000E-01   4.000000E-01   4.000000E-01   4.000000E-01   4.000000E-01   4.000000E-01   4.000000E-01   4.000000E-01   4.000000E-01   4.000000E-01   4.000000E-01   4.000000E-01   4.000000E-01   4.000000E-01   4.000000E-01   4.000000E-01   4.000000E-01   4.000000E-01   4.000000E-01   4.000000E-01   4.000000E-01   4.000000E-01   4.000000E-01   4.000000E-01   4.000000E-01   4.000000E-01   4.000000E-01   4.000000E-01   4.000000E-01   4.000000E-01   4.000000E-01   4.000000E-01   4.000000E-01   4.000000E-01   4.000000E-01   4.000000E-01   4.000000E-01   4.000000E-01   4.000000E-01   4.000000E-01   4.000000E-01   4.000000E-01   4.000000E-01   4.000000E-01   4.000000E-01   4.000000E-01   4.000000E-01   4.000000E-01   4.000000E-01   4.000000E-01   4.000000E-01   4.000000E-01   4.000000E-01   4.000000E-01   4.000000E-01   4.000000E-01   4.000000E-01   4.000000E-01   4.000000E-01   4.000000E-01   4.000000E-01   4.000000E-01   4.000000E-01   4.000000E-01   4.000000E-01   4.000000E-01   4.000000E-01   4.000000E-01   4.000000E-01   4.000000E-01   4.000000E-01   4.000000E-01   4.000000E-01   4.000000E-01   4.000000E-01   4.000000E-01   4.000000E-01   4.000000E-01   4.000000E-01   4.000000E-01   4.000000E-01   4.000000E-01   4.000000E-01   4.000000E-01   4.000000E-01   4.000000E-01   4.000000E-01   4.000000E-01   4.000000E-01   4.000000E-01   4.000000E-01   4.000000E-01   4.000000E-01   4.000000E-01   4.000000E-01   4.000000E-01   4.000000E-01   4.000000E-01   4.000000E-01   4.000000E-01   4.000000E-01   4.000000E-01   4.000000E-01   4.000000E-01   4.000000E-01   4.000000E-01   4.000000E-01   4.000000E-01   4.000000E-01   4.000000E-01   4.000000E-01   4.000000E-01   4.000000E-01   4.000000E-01   4.000000E-01   4.000000E-01   4.000000E-01   4.000000E-01   4.000000E-01   4.000000E-01   4.000000E-01   4.000000E-01   4.000000E-01   4.000000E-01   4.000000E-01   4.000000E-01   4.000000E-01   4.000000E-01   4.000000E-01   4.000000E-01   4.000000E-01   4.000000E-01   4.000000E-01   4.000000E-01   4.000000E-01   4.000000E-01   4.000000E-01   4.000000E-01   4.000000E-01   4.000000E-01   4.000000E-01   4.000000E-01   4.000000E-01   4.000000E-01   4.000000E-01   4.000000E-01   4.000000E-01   4.000000E-01   4.000000E-01   4.000000E-01   4.000000E-01   4.000000E-01   4.000000E-01   4.000000E-01   4.000000E-01   4.000000E-01   4.000000E-01   4.000000E-01   4.000000E-01   4.000000E-01   4.000000E-01   4.000000E-01   4.000000E-01   4.000000E-01   4.000000E-01   4.000000E-01   4.000000E-01   4.000000E-01   4.000000E-01   4.000000E-01   4.000000E-01   4.000000E-01   4.000000E-01   4.000000E-01   4.000000E-01   4.000000E-01   4.000000E-01   4.000000E-01   4.000000E-01   4.000000E-01   4.000000E-01   4.000000E-01   4.000000E-01   4.000000E-01   4.000000E-01   4.000000E-01   4.000000E-01   4.000000E-01   4.000000E-01   4.000000E-01   4.000000E-01   4.000000E-01   4.000000E-01   4.000000E-01   4.000000E-01   4.000000E-01   4.000000E-01   4.000000E-01   4.000000E-01   4.000000E-01   4.000000E-01   4.000000E-01   4.000000E-01   4.000000E-01   4.000000E-01   4.000000E-01   4.000000E-01   4.000000E-01   4.000000E-01   4.000000E-01   4.000000E-01   4.000000E-01   4.000000E-01   4.000000E-01   4.000000E-01   4.000000E-01   4.000000E-01   4.000000E-01   4.000000E-01   4.000000E-01   4.000000E-01   4.000000E-01   4.000000E-01   4.000000E-01   4.000000E-01   4.000000E-01   4.000000E-01   4.000000E-01   4.000000E-01   4.000000E-01   4.000000E-01   4.000000E-01   4.000000E-01   4.000000E-01   4.000000E-01   4.000000E-01   4.000000E-01   4.000000E-01   4.000000E-01   4.000000E-01   4.000000E-01   4.000000E-01   4.000000E-01   4.000000E-01   4.000000E-01   4.000000E-01   4.000000E-01   4.000000E-01   4.000000E-01   4.000000E-01   4.000000E-01   4.000000E-01   4.000000E-01   4.000000E-01   4.000000E-01   4.000000E-01   4.000000E-01   4.000000E-01   4.000000E-01   4.000000E-01   4.000000E-01   4.000000E-01   4.000000E-01   4.000000E-01   4.000000E-01   4.000000E-01   4.000000E-01   4.000000E-01   4.000000E-01   4.000000E-01   4.000000E-01   4.000000E-01   4.000000E-01   4.000000E-01   4.000000E-01   4.000000E-01   4.000000E-01   4.000000E-01   4.000000E-01   4.000000E-01   4.000000E-01   4.000000E-01   4.000000E-01   4.000000E-01   4.000000E-01   4.000000E-01   4.000000E-01   4.000000E-01   4.000000E-01   4.000000E-01   4.000000E-01   4.000000E-01   4.000000E-01   4.000000E-01   4.000000E-01   4.000000E-01   4.000000E-01   4.000000E-01   4.000000E-01   4.000000E-01   4.000000E-01   4.000000E-01   4.000000E-01   4.000000E-01   4.000000E-01   4.000000E-01   4.000000E-01   4.000000E-01   4.000000E-01   4.000000E-01   4.000000E-01   4.000000E-01   4.000000E-01   4.000000E-01   4.000000E-01   4.000000E-01   4.000000E-01   4.000000E-01   4.000000E-01   4.000000E-01   4.000000E-01   4.000000E-01   4.000000E-01   4.000000E-01   4.000000E-01   4.000000E-01   4.000000E-01   4.000000E-01   4.000000E-01   4.000000E-01   4.000000E-01   4.000000E-01   4.000000E-01   4.000000E-01   4.000000E-01   4.000000E-01   4.000000E-01   4.000000E-01   4.000000E-01   4.000000E-01   4.000000E-01   4.000000E-01   4.000000E-01   4.000000E-01   4.000000E-01   4.000000E-01   4.000000E-01   4.000000E-01   4.000000E-01   4.000000E-01   4.000000E-01   4.000000E-01   4.000000E-01   4.000000E-01   4.000000E-01   4.000000E-01   4.000000E-01   4.000000E-01   4.000000E-01   4.000000E-01   4.000000E-01   4.000000E-01   4.000000E-01   4.000000E-01   4.000000E-01   4.000000E-01   4.000000E-01   4.000000E-01   4.000000E-01   4.000000E-01   4.000000E-01   4.000000E-01   4.000000E-01   4.000000E-01   4.000000E-01   4.000000E-01   4.000000E-01   4.000000E-01   4.000000E-01   4.000000E-01   4.000000E-01   4.000000E-01   4.000000E-01   4.000000E-01   4.000000E-01   4.000000E-01   4.000000E-01   4.000000E-01   4.000000E-01   4.000000E-01   4.000000E-01   4.000000E-01   4.000000E-01   4.000000E-01   4.000000E-01   4.000000E-01   4.000000E-01   4.000000E-01   4.000000E-01   4.000000E-01   4.000000E-01   4.000000E-01   4.000000E-01   4.000000E-01   4.000000E-01   4.000000E-01   4.000000E-01   4.000000E-01   4.000000E-01   4.000000E-01   4.000000E-01   4.000000E-01   4.000000E-01   4.000000E-01   4.000000E-01   4.000000E-01   4.000000E-01   4.000000E-01   4.000000E-01   4.000000E-01   4.000000E-01   4.000000E-01   4.000000E-01   4.000000E-01   4.000000E-01   4.000000E-01   4.000000E-01   4.000000E-01   4.000000E-01   4.000000E-01   4.000000E-01   4.000000E-01   4.000000E-01   4.000000E-01   4.000000E-01   4.000000E-01   4.000000E-01   4.000000E-01   4.000000E-01   4.000000E-01   4.000000E-01   4.000000E-01   4.000000E-01   4.000000E-01   4.000000E-01   4.000000E-01   4.000000E-01   4.000000E-01   4.000000E-01   4.000000E-01   4.000000E-01   4.000000E-01   4.000000E-01   4.000000E-01   4.000000E-01   4.000000E-01   4.000000E-01   4.000000E-01   4.000000E-01   4.000000E-01   4.000000E-01   4.000000E-01   4.000000E-01   4.000000E-01   4.000000E-01   4.000000E-01   4.000000E-01   4.000000E-01   4.000000E-01   4.000000E-01   4.000000E-01   4.000000E-01   4.000000E-01   4.000000E-01   4.000000E-01   4.000000E-01   4.000000E-01   4.000000E-01   4.000000E-01   4.000000E-01   4.000000E-01   4.000000E-01   4.000000E-01   4.000000E-01   4.000000E-01   4.000000E-01   4.000000E-01   4.000000E-01   4.000000E-01   4.000000E-01   4.000000E-01   4.000000E-01   4.000000E-01   4.000000E-01   4.000000E-01   4.000000E-01   4.000000E-01   4.000000E-01   4.000000E-01   4.000000E-01   4.000000E-01   4.000000E-01   4.000000E-01   4.000000E-01   4.000000E-01   4.000000E-01   4.000000E-01   4.000000E-01   4.000000E-01   4.000000E-01   4.000000E-01   4.000000E-01   4.000000E-01   4.000000E-01   4.000000E-01   4.000000E-01   4.000000E-01   4.000000E-01   4.000000E-01   4.000000E-01   4.000000E-01   4.000000E-01   4.000000E-01   4.000000E-01   4.000000E-01   4.000000E-01   4.000000E-01   4.000000E-01   4.000000E-01   4.000000E-01   4.000000E-01   4.000000E-01   4.000000E-01   4.000000E-01   4.000000E-01   4.000000E-01   4.000000E-01   4.000000E-01   4.000000E-01   4.000000E-01   4.000000E-01   4.000000E-01   4.000000E-01   4.000000E-01   4.000000E-01   4.000000E-01   4.000000E-01   4.000000E-01   4.000000E-01   4.000000E-01   4.000000E-01   4.000000E-01   4.000000E-01   4.000000E-01   4.000000E-01   4.000000E-01   4.000000E-01   4.000000E-01   4.000000E-01   4.000000E-01   4.000000E-01   4.000000E-01   4.000000E-01   4.000000E-01   4.000000E-01   4.000000E-01   4.000000E-01   4.000000E-01   4.000000E-01   4.000000E-01   4.000000E-01   4.000000E-01   4.000000E-01   4.000000E-01   4.000000E-01   4.000000E-01   4.000000E-01   4.000000E-01   4.000000E-01   4.000000E-01   4.000000E-01   4.000000E-01   4.000000E-01   4.000000E-01   4.000000E-01   4.000000E-01   4.000000E-01   4.000000E-01   4.000000E-01   4.000000E-01   4.000000E-01   4.000000E-01   4.000000E-01   4.000000E-01   4.000000E-01   4.000000E-01   4.000000E-01   4.000000E-01   4.000000E-01   4.000000E-01   4.000000E-01   4.000000E-01   4.000000E-01   4.000000E-01   4.000000E-01   4.000000E-01   4.000000E-01   4.000000E-01   4.000000E-01   4.000000E-01   4.000000E-01   4.000000E-01   4.000000E-01   4.000000E-01   4.000000E-01   4.000000E-01   4.000000E-01   4.000000E-01   4.000000E-01   4.000000E-01   4.000000E-01   4.000000E-01   4.000000E-01   4.000000E-01   4.000000E-01   4.000000E-01   4.000000E-01   4.000000E-01   4.000000E-01   4.000000E-01   4.000000E-01   4.000000E-01   4.000000E-01   4.000000E-01   4.000000E-01   4.000000E-01   4.000000E-01   4.000000E-01   4.000000E-01   4.000000E-01   4.000000E-01   4.000000E-01   4.000000E-01   4.000000E-01   4.000000E-01   4.000000E-01   4.000000E-01   4.000000E-01   4.000000E-01   4.000000E-01   4.000000E-01   4.000000E-01   4.000000E-01   4.000000E-01   4.000000E-01   4.000000E-01   4.000000E-01   4.000000E-01   4.000000E-01   4.000000E-01   4.000000E-01   4.000000E-01   4.000000E-01   4.000000E-01   4.000000E-01   4.000000E-01   4.000000E-01   4.000000E-01   4.000000E-01   4.000000E-01   4.000000E-01   4.000000E-01   4.000000E-01   4.000000E-01   4.000000E-01   4.000000E-01   4.000000E-01   4.000000E-01   4.000000E-01   4.000000E-01   4.000000E-01   4.000000E-01   4.000000E-01   4.000000E-01   4.000000E-01   4.000000E-01   4.000000E-01   4.000000E-01   4.000000E-01   4.000000E-01   4.000000E-01   4.000000E-01   4.000000E-01   4.000000E-01   4.000000E-01   4.000000E-01   4.000000E-01   4.000000E-01   4.000000E-01   4.000000E-01   4.000000E-01   4.000000E-01   4.000000E-01   4.000000E-01   4.000000E-01   4.000000E-01   4.000000E-01   4.000000E-01   4.000000E-01   4.000000E-01   4.000000E-01   4.000000E-01   4.000000E-01   4.000000E-01   4.000000E-01   4.000000E-01   4.000000E-01   4.000000E-01   4.000000E-01   4.000000E-01   4.000000E-01   4.000000E-01   4.000000E-01   4.000000E-01   4.000000E-01   4.000000E-01   4.000000E-01   4.000000E-01   4.000000E-01   4.000000E-01   4.000000E-01   4.000000E-01   4.000000E-01   4.000000E-01   4.000000E-01   4.000000E-01   4.000000E-01   4.000000E-01   4.000000E-01   4.000000E-01   4.000000E-01   4.000000E-01   4.000000E-01   4.000000E-01   4.000000E-01   4.000000E-01   4.000000E-01   4.000000E-01   4.000000E-01   4.000000E-01   4.000000E-01   4.000000E-01   4.000000E-01   4.000000E-01   4.000000E-01   4.000000E-01   4.000000E-01   4.000000E-01   4.000000E-01   4.000000E-01   4.000000E-01   4.000000E-01   4.000000E-01   4.000000E-01   4.000000E-01   4.000000E-01   4.000000E-01   4.000000E-01   4.000000E-01   4.000000E-01   4.000000E-01   4.000000E-01   4.000000E-01   4.000000E-01   4.000000E-01   4.000000E-01   4.000000E-01   4.000000E-01   4.000000E-01   4.000000E-01   4.000000E-01   4.000000E-01   4.000000E-01   4.000000E-01   4.000000E-01   4.000000E-01   4.000000E-01   4.000000E-01   4.000000E-01   4.000000E-01   4.000000E-01   4.000000E-01   4.000000E-01   4.000000E-01   4.000000E-01   4.000000E-01   4.000000E-01   4.000000E-01   4.000000E-01   4.000000E-01   4.000000E-01   4.000000E-01   4.000000E-01   4.000000E-01   4.000000E-01   4.000000E-01   4.000000E-01   4.000000E-01   4.000000E-01   4.000000E-01   4.000000E-01   4.000000E-01   4.000000E-01   4.000000E-01   4.000000E-01   4.000000E-01   4.000000E-01   4.000000E-01   4.000000E-01   4.000000E-01   4.000000E-01   4.000000E-01   4.000000E-01   4.000000E-01   4.000000E-01   4.000000E-01   4.000000E-01   4.000000E-01   4.000000E-01   4.000000E-01   4.000000E-01   4.000000E-01   4.000000E-01   4.000000E-01   4.000000E-01   4.000000E-01   4.000000E-01   4.000000E-01   4.000000E-01   4.000000E-01   4.000000E-01   4.000000E-01   4.000000E-01   4.000000E-01   4.000000E-01   4.000000E-01   4.000000E-01   4.000000E-01   4.000000E-01   4.000000E-01   4.000000E-01   4.000000E-01   4.000000E-01   4.000000E-01   4.000000E-01   4.000000E-01   4.000000E-01   4.000000E-01   4.000000E-01   4.000000E-01   4.000000E-01   4.000000E-01   4.000000E-01   4.000000E-01   4.000000E-01   4.000000E-01   4.000000E-01   4.000000E-01   4.000000E-01   4.000000E-01   4.000000E-01   4.000000E-01   4.000000E-01   4.000000E-01   4.000000E-01   4.000000E-01   4.000000E-01   4.000000E-01   4.000000E-01   4.000000E-01   4.000000E-01   4.000000E-01   4.000000E-01   4.000000E-01   4.000000E-01   4.000000E-01   4.000000E-01   4.000000E-01   4.000000E-01   4.000000E-01   4.000000E-01   4.000000E-01   4.000000E-01   4.000000E-01   4.000000E-01   4.000000E-01   4.000000E-01   4.000000E-01   4.000000E-01   4.000000E-01   4.000000E-01   4.000000E-01   4.000000E-01   4.000000E-01   4.000000E-01   4.000000E-01   4.000000E-01   4.000000E-01   4.000000E-01   4.000000E-01   4.000000E-01   4.000000E-01   4.000000E-01   4.000000E-01   4.000000E-01   4.000000E-01   4.000000E-01   4.000000E-01   4.000000E-01   4.000000E-01   4.000000E-01   4.000000E-01   4.000000E-01   4.000000E-01   4.000000E-01   4.000000E-01   4.000000E-01   4.000000E-01   4.000000E-01   4.000000E-01   4.000000E-01   4.000000E-01   4.000000E-01   4.000000E-01   4.000000E-01   4.000000E-01   4.000000E-01   4.000000E-01   4.000000E-01   4.000000E-01   4.000000E-01   4.000000E-01   4.000000E-01   4.000000E-01   4.000000E-01   4.000000E-01   4.000000E-01   4.000000E-01   4.000000E-01   4.000000E-01   4.000000E-01   4.000000E-01   4.000000E-01   4.000000E-01   4.000000E-01   4.000000E-01   4.000000E-01   4.000000E-01   4.000000E-01   4.000000E-01   4.000000E-01   4.000000E-01   4.000000E-01   4.000000E-01   4.000000E-01   4.000000E-01   4.000000E-01   4.000000E-01   4.000000E-01   4.000000E-01   4.000000E-01   4.000000E-01   4.000000E-01   4.000000E-01   4.000000E-01   4.000000E-01   4.000000E-01   4.000000E-01   4.000000E-01   4.000000E-01   4.000000E-01   4.000000E-01   4.000000E-01   4.000000E-01   4.000000E-01   4.000000E-01   4.000000E-01   4.000000E-01   4.000000E-01   4.000000E-01   4.000000E-01   4.000000E-01   4.000000E-01   4.000000E-01   4.000000E-01   4.000000E-01   4.000000E-01   4.000000E-01   4.000000E-01   4.000000E-01   4.000000E-01   4.000000E-01   4.000000E-01   4.000000E-01   4.000000E-01   4.000000E-01   4.000000E-01   4.000000E-01   4.000000E-01   4.000000E-01   4.000000E-01   4.000000E-01   4.000000E-01   4.000000E-01   4.000000E-01   4.000000E-01   4.000000E-01   4.000000E-01   4.000000E-01   4.000000E-01   4.000000E-01   4.000000E-01   4.000000E-01   4.000000E-01   4.000000E-01   4.000000E-01   4.000000E-01   4.000000E-01   4.000000E-01   4.000000E-01   4.000000E-01   4.000000E-01   4.000000E-01   4.000000E-01   4.000000E-01   4.000000E-01   4.000000E-01   4.000000E-01   4.000000E-01   4.000000E-01   4.000000E-01   4.000000E-01   4.000000E-01   4.000000E-01   4.000000E-01   4.000000E-01   4.000000E-01   4.000000E-01   4.000000E-01   4.000000E-01   4.000000E-01   4.000000E-01   4.000000E-01   4.000000E-01   4.000000E-01   4.000000E-01   4.000000E-01   4.000000E-01   4.000000E-01   4.000000E-01   4.000000E-01   4.000000E-01   4.000000E-01   4.000000E-01   4.000000E-01   4.000000E-01   4.000000E-01   4.000000E-01   4.000000E-01   4.000000E-01   4.000000E-01   4.000000E-01   4.000000E-01   4.000000E-01   4.000000E-01   4.000000E-01   4.000000E-01   4.000000E-01   4.000000E-01   4.000000E-01   4.000000E-01   4.000000E-01   4.000000E-01   4.000000E-01   4.000000E-01   4.000000E-01   4.000000E-01   4.000000E-01   4.000000E-01   4.000000E-01   4.000000E-01   4.000000E-01   4.000000E-01   4.000000E-01   4.000000E-01   4.000000E-01   4.000000E-01   4.000000E-01   4.000000E-01   4.000000E-01   4.000000E-01   4.000000E-01   4.000000E-01   4.000000E-01   4.000000E-01   4.000000E-01   4.000000E-01   4.000000E-01   4.000000E-01   4.000000E-01   4.000000E-01   4.000000E-01   4.000000E-01   4.000000E-01   4.000000E-01   4.000000E-01   4.000000E-01   4.000000E-01   4.000000E-01   4.000000E-01   4.000000E-01   4.000000E-01   4.000000E-01   4.000000E-01   4.000000E-01   4.000000E-01   4.000000E-01   4.000000E-01   4.000000E-01   4.000000E-01   4.000000E-01   4.000000E-01   4.000000E-01   4.000000E-01   4.000000E-01   4.000000E-01   4.000000E-01   4.000000E-01   4.000000E-01   4.000000E-01   4.000000E-01   4.000000E-01   4.000000E-01   4.000000E-01   4.000000E-01   4.000000E-01   4.000000E-01   4.000000E-01   4.000000E-01   4.000000E-01   4.000000E-01   4.000000E-01   4.000000E-01   4.000000E-01   4.000000E-01   4.000000E-01   4.000000E-01   4.000000E-01   4.000000E-01   4.000000E-01   4.000000E-01   4.000000E-01   4.000000E-01   4.000000E-01   4.000000E-01   4.000000E-01   4.000000E-01   4.000000E-01   4.000000E-01   4.000000E-01   4.000000E-01   4.000000E-01   4.000000E-01   4.000000E-01   4.000000E-01   4.000000E-01   4.000000E-01   4.000000E-01   4.000000E-01   4.000000E-01   4.000000E-01   4.000000E-01   4.000000E-01   4.000000E-01   4.000000E-01   4.000000E-01   4.000000E-01   4.000000E-01   4.000000E-01   4.000000E-01   4.000000E-01   4.000000E-01   4.000000E-01   4.000000E-01   4.000000E-01   4.000000E-01   4.000000E-01   4.000000E-01   4.000000E-01   4.000000E-01   4.000000E-01   4.000000E-01   4.000000E-01   4.000000E-01   4.000000E-01   4.000000E-01   4.000000E-01   4.000000E-01   4.000000E-01   4.000000E-01   4.000000E-01   4.000000E-01   4.000000E-01   4.000000E-01   4.000000E-01   4.000000E-01   4.000000E-01   4.000000E-01   4.000000E-01   4.000000E-01   4.000000E-01   4.000000E-01   4.000000E-01   4.000000E-01   4.000000E-01   4.000000E-01   4.000000E-01   4.000000E-01   4.000000E-01   4.000000E-01   4.000000E-01   4.000000E-01   4.000000E-01   4.000000E-01   4.000000E-01   4.000000E-01   4.000000E-01   4.000000E-01   4.000000E-01   4.000000E-01   4.000000E-01   4.000000E-01   4.000000E-01   4.000000E-01   4.000000E-01   4.000000E-01   4.000000E-01   4.000000E-01   4.000000E-01   4.000000E-01   4.000000E-01   4.000000E-01   4.000000E-01   4.000000E-01   4.000000E-01   4.000000E-01   4.000000E-01   4.000000E-01   4.000000E-01   4.000000E-01   