<?xml version="1.0"?>
<!-- Time =  2.0024429269476787E-01s -->
<VTKFile type="PolyData" version="0.1" byte_order="LittleEndian">
<PolyData>
<Piece NumberOfPoints="0000028800" NumberOfVerts="0" NumberOfLines="0" NumberOfStrips="0" NumberOfPolys="0">
<Points>
<DataArray type="Float32" Name="Position" NumberOfComponents="3" format="ascii">
  7.490087E-01   1.951455E-01   5.301279E-01   1.139132E+00   1.980323E-01   4.511925E-01   1.447651E+00   2.115242E-01   1.992607E-01   2.244967E+00   1.998093E-01   1.995652E-01   2.515651E+00   1.988000E-01   5.980967E-01   3.346449E+00   1.985848E-01   5.657802E-01   3.780872E+00   1.967864E-01   5.100602E-01   4.115201E+00   1.961474E-01   8.379664E-01   4.672716E+00   1.991224E-01   1.999234E-01   5.971061E+00   1.999551E-01   1.563816E+00   6.485208E+00   3.678064E-01   5.709727E-01   6.617019E+00   3.548558E+00   2.852541E+00   6.837035E+00   2.197453E+00   2.012476E+00   6.492339E+00   3.686657E+00   2.498984E+00   7.266184E+00   4.064998E+00   2.473537E+00   6.134665E+00   3.800586E+00   4.036309E+00   6.771754E+00   3.704195E+00   3.213377E+00   8.474157E+00   4.427052E+00   3.597938E+00   7.547073E+00   3.623348E+00   3.080756E+00   7.291925E+00   2.588814E+00   2.236705E+00   7.682549E+00   1.629822E+00   1.586592E+00   8.576013E+00   2.260437E-01   1.239412E+00   1.036224E+01   1.968700E-01   1.999691E-01   1.061494E+01   1.979447E-01   5.352519E-01   1.151454E+01   1.982429E-01   9.004375E-01   1.191634E+01   1.984182E-01   8.561176E-01   1.299888E+01   2.038352E-01   5.103475E-01   1.323860E+01   1.957707E-01   1.950618E-01   1.339906E+01   1.987624E-01   5.590395E-01   1.388225E+01   1.955778E-01   4.241753E-01   1.411883E+01   1.899732E-01   7.566779E-01   1.972215E-01   1.924836E-01   8.521374E-01   1.009807E+00   1.997137E-01   8.329733E-01   1.550161E+00   1.993927E-01   1.061721E+00   1.850622E+00   1.978046E-01   7.983460E-01   2.238963E+00   1.981914E-01   8.856326E-01   2.648698E+00   1.954632E-01   9.761304E-01   3.529294E+00   1.970390E-01   1.997455E-01   3.607975E+00   1.996700E-01   8.705291E-01   4.031518E+00   1.980423E-01   1.994306E-01   5.194610E+00   1.990978E-01   1.307534E+00   5.071720E+00   1.976620E-01   1.995103E-01   6.985052E+00   1.690235E+00   1.158443E+00   6.519311E+00   3.912040E+00   2.985017E+00   7.247008E+00   8.528904E-01   2.232393E-01   5.552996E+00   2.658474E+00   3.071318E+00   6.504094E+00   3.861948E+00   2.140136E+00   6.849916E+00   4.181110E+00   3.567385E+00   5.913567E+00   2.857206E+00   3.271715E+00   7.600279E+00   2.679634E+00   1.711378E+00   6.987551E+00   3.483471E+00   2.715062E+00   7.625251E+00   7.317895E-01   2.695335E-01   8.813332E+00   2.006418E-01   4.941362E-01   8.994543E+00   1.997176E-01   8.732893E-01   1.105132E+01   1.940388E-01   1.999193E-01   1.114888E+01   1.938266E-01   1.061137E+00   1.196653E+01   1.947979E-01   1.985707E-01   1.235436E+01   1.968612E-01   8.962850E-01   1.295138E+01   1.940354E-01   9.025030E-01   1.336198E+01   1.993989E-01   9.598143E-01   1.372318E+01   1.963687E-01   7.896186E-01   1.410469E+01   5.323632E-01   5.645446E-01   1.480277E+01   1.943738E-01   6.324636E-01   3.828922E-01   3.492688E-01   5.399947E-01   1.475976E+00   1.964706E-01   6.638783E-01   1.745369E+00   4.382705E-01   4.983313E-01   1.846084E+00   1.967494E-01   1.986866E-01   2.137110E+00   3.731569E-01   5.429333E-01   3.132876E+00   1.922101E-01   1.975164E-01   3.777463E+00   5.054657E-01   2.037253E-01   4.603693E+00   1.995943E-01   8.270076E-01   5.587378E+00   1.995477E-01   5.822982E-01   6.265248E+00   2.051814E-01   9.495243E-01   6.814894E+00   5.308089E-01   2.127275E-01   6.971633E+00   2.885136E+00   2.568148E+00   6.831088E+00   1.252467E+00   1.402321E+00   6.203783E+00   3.361591E+00   2.546330E+00   7.218410E+00   2.081784E+00   2.054851E+00   6.896156E+00   4.176864E+00   2.575241E+00   6.842743E+00   3.789290E+00   2.339710E+00   7.197284E+00   3.895661E+00   2.109447E+00   7.531636E+00   1.193050E+00   2.049658E-01   7.495721E+00   2.837072E+00   2.474557E+00   8.442840E+00   2.815897E-01   2.006821E-01   7.529630E+00   1.849491E+00   1.894036E+00   9.482296E+00   1.997832E-01   2.262309E-01   1.021825E+01   1.993500E-01   5.802759E-01   1.145041E+01   1.984587E-01   1.995611E-01   1.216562E+01   1.999783E-01   5.447279E-01   1.260519E+01   2.299448E-01   5.756804E-01   1.299450E+01   5.099935E-01   1.975526E-01   1.333493E+01   6.019226E-01   3.804656E-01   1.359731E+01   3.621919E-01   1.989293E-01   1.442945E+01   2.716604E-01   5.197212E-01   1.965313E-01   4.157283E-01   1.956757E-01   5.258282E-01   1.933460E-01   1.985088E-01   1.232856E+00   5.455037E-01   2.770247E-01   1.605962E+00   6.622407E-01   1.990393E-01   2.041370E+00   5.438307E-01   1.957461E-01   2.643148E+00   1.977898E-01   2.190901E-01   3.321629E+00   5.168644E-01   3.260940E-01   4.207480E+00   3.891509E-01   1.174205E+00   4.351473E+00   4.350071E-01   1.980442E-01   5.562476E+00   1.994296E-01   1.608716E+00   6.015842E+00   1.998879E-01   2.007411E-01   6.895195E+00   2.572779E+00   2.193879E+00   6.342387E+00   2.628684E+00   2.746822E+00   7.461803E+00   2.238676E+00   2.546003E+00   5.982746E+00   3.243209E+00   1.865788E+00   7.084280E+00   2.068238E+00   1.244005E+00   7.606300E+00   2.793708E+00   2.094081E+00   8.801233E+00   4.215013E+00   3.513544E+00   7.870595E+00   1.487820E+00   1.210280E+00   7.636624E+00   4.037672E+00   2.626329E+00   7.246017E+00   2.569570E+00   2.640509E+00   8.440933E+00   2.994853E-01   6.009972E-01   8.928724E+00   1.999863E-01   1.425961E+00   9.611421E+00   1.993250E-01   7.553723E-01   1.029178E+01   4.021862E-01   1.306993E+00   1.171506E+01   2.009840E-01   5.095084E-01   1.236132E+01   2.346427E-01   1.990223E-01   1.275521E+01   1.935312E-01   1.977091E-01   1.325527E+01   9.497510E-01   1.999169E-01   1.365340E+01   7.578314E-01   1.977582E-01   1.421127E+01   1.965524E-01   1.972522E-01   1.465627E+01   1.990447E-01   1.989548E-01   8.634127E-01   5.746107E-01   5.450027E-01   8.842533E-01   3.689942E-01   1.974943E-01   1.522229E+00   7.581559E-01   5.782238E-01   1.994253E+00   7.464550E-01   5.332314E-01   2.663494E+00   5.622078E-01   5.280569E-01   2.911474E+00   2.062259E-01   5.411327E-01   3.578376E+00   5.170181E-01   6.296201E-01   4.351661E+00   1.974094E-01   5.169039E-01   5.471343E+00   1.987433E-01   1.997244E-01   6.723107E+00   6.903772E-01   1.031238E+00   6.415606E+00   2.193675E-01   2.000616E-01   7.010602E+00   3.313782E+00   2.354625E+00   7.191586E+00   2.975446E+00   2.246409E+00   6.651674E+00   3.294105E+00   3.158692E+00   6.596971E+00   3.440318E+00   3.526166E+00   6.203372E+00   3.504160E+00   3.527730E+00   8.328304E+00   3.898052E+00   2.772537E+00   7.183249E+00   4.143639E+00   2.905209E+00   7.600268E+00   3.662306E+00   2.496758E+00   7.665413E+00   2.876910E+00   2.914634E+00   7.666118E+00   2.263043E+00   1.686183E+00   8.667449E+00   4.273733E-01   9.063185E-01   9.083423E+00   1.982878E-01   1.994206E-01   9.872133E+00   1.991145E-01   1.057966E+00   1.129494E+01   1.997312E-01   5.672224E-01   1.195228E+01   5.358322E-01   5.855252E-01   1.234225E+01   5.878913E-01   6.574580E-01   1.283278E+01   5.639608E-01   5.580462E-01   1.343588E+01   7.784727E-01   7.221141E-01   1.396512E+01   5.078447E-01   1.946443E-01   1.443202E+01   5.299984E-01   2.102531E-01   1.985272E-01   5.872020E-01   8.024755E-01   5.160774E-01   7.497177E-01   6.254666E-01   1.230550E+00   5.074697E-01   6.857454E-01   1.803522E+00   8.824332E-01   8.540334E-01   2.196817E+00   8.260342E-01   8.638490E-01   3.040503E+00   6.863951E-01   5.537685E-01   3.279037E+00   6.303959E-01   8.677006E-01   3.900278E+00   5.289111E-01   8.660210E-01   4.902965E+00   1.998161E-01   5.618823E-01   5.839166E+00   1.997799E-01   8.930373E-01   6.090847E+00   2.701107E-01   5.887254E-01   7.353699E+00   2.415887E+00   1.881655E+00   6.972717E+00   2.511437E+00   1.806700E+00   7.252374E+00   2.593131E+00   1.533552E+00   6.218043E+00   3.582268E+00   1.469756E+00   6.308614E+00   3.161857E+00   2.081759E+00   7.468331E+00   1.895988E+00   1.279539E+00   8.017181E+00   3.748138E+00   1.721128E+00   7.845777E+00   3.381368E+00   2.356430E+00   7.776407E+00   2.433271E+00   2.045964E+00   7.314787E+00   2.076708E+00   1.646135E+00   8.096122E+00   6.700279E-01   2.040195E-01   9.247626E+00   1.994890E-01   5.636155E-01   1.016364E+01   5.421962E-01   1.974754E-01   1.079469E+01   2.578904E-01   8.873239E-01   1.123790E+01   5.429402E-01   1.994628E-01   1.192053E+01   8.288388E-01   8.646019E-01   1.263820E+01   8.470973E-01   7.603651E-01   1.308391E+01   8.288876E-01   9.007278E-01   1.447903E+01   6.615725E-01   5.850098E-01   1.444204E+01   6.835886E-01   1.101659E+00   1.480668E+01   8.835543E-01   5.905108E-01   5.544092E-01   5.815185E-01   2.664629E-01   9.092117E-01   7.679442E-01   1.987624E-01   1.141957E+00   8.560465E-01   5.110202E-01   1.896898E+00   9.351237E-01   1.977476E-01   2.438558E+00   5.802971E-01   1.990492E-01   2.895285E+00   5.049049E-01   2.083186E-01   3.540061E+00   8.249367E-01   1.988404E-01   5.062394E+00   1.999091E-01   9.285889E-01   5.792627E+00   5.420275E-01   5.953392E-01   6.629759E+00   9.106590E-01   1.351363E+00   6.198676E+00   5.552803E-01   1.997228E-01   6.839718E+00   8.872353E-01   7.033781E-01   6.853614E+00   9.308252E-01   2.014980E-01   6.320873E+00   1.998209E+00   2.542280E+00   6.669466E+00   3.062538E+00   2.221994E+00   7.623137E+00   2.066802E+00   9.008335E-01   7.959794E+00   2.742561E+00   1.872533E+00   8.475067E+00   3.251345E+00   2.459906E+00   7.357223E+00   1.757377E+00   8.991021E-01   7.595348E+00   2.108552E+00   2.192929E+00   8.338974E+00   6.619257E-01   8.792973E-01   9.033145E+00   5.342814E-01   5.163141E-01   9.965382E+00   1.978009E-01   2.389359E-01   1.012493E+01   4.508849E-01   8.793212E-01   1.095528E+01   4.070004E-01   5.380137E-01   1.171353E+01   4.972319E-01  
[...]
<PointData Scalars="Diameter" Vectors="Velocity">
<DataArray type="Float32" Name="Diameter" format="ascii">
  4.000000E-01   4.000000E-01   4.000000E-01   4.000000E-01   4.000000E-01   4.000000E-01   4.000000E-01   4.000000E-01   4.000000E-01   4.000000E-01   4.000000E-01   4.000000E-01   4.000000E-01   4.000000E-01   4.000000E-01   4.000000E-01   4.000000E-01   4.000000E-01   4.000000E-01   4.000000E-01   4.000000E-01   4.000000E-01   4.000000E-01   4.000000E-01   4.000000E-01   4.000000E-01   4.000000E-01   4.000000E-01   4.000000E-01   4.000000E-01   4.000000E-01   4.000000E-01   4.000000E-01   4.000000E-01   4.000000E-01   4.000000E-01   4.000000E-01   4.000000E-01   4.000000E-01   4.000000E-01   4.000000E-01   4.000000E-01   4.000000E-01   4.000000E-01   4.000000E-01   4.000000E-01   4.000000E-01   4.000000E-01   4.000000E-01   4.000000E-01   4.000000E-01   4.000000E-01   4.000000E-01   4.000000E-01   4.000000E-01   4.000000E-01   4.000000E-01   4.000000E-01   4.000000E-01   4.000000E-01   4.000000E-01   4.000000E-01   4.000000E-01   4.000000E-01   4.000000E-01   4.000000E-01   4.000000E-01   4.000000E-01   4.000000E-01   4.000000E-01   4.000000E-01   4.000000E-01   4.000000E-01   4.000000E-01   4.000000E-01   4.000000E-01   4.000000E-01   4.000000E-01   4.000000E-01   4.000000E-01   4.000000E-01   4.000000E-01   4.000000E-01   4.000000E-01   4.000000E-01   4.000000E-01   4.000000E-01   4.000000E-01   4.000000E-01   4.000000E-01   4.000000E-01   4.000000E-01   4.000000E-01   4.000000E-01   4.000000E-01   4.000000E-01   4.000000E-01   4.000000E-01   4.000000E-01   4.000000E-01   4.000000E-01   4.000000E-01   4.000000E-01   4.000000E-01   4.000000E-01   4.000000E-01   4.000000E-01   4.000000E-01   4.000000E-01   4.000000E-01   4.000000E-01   4.000000E-01   4.000000E-01   4.000000E-01   4.000000E-01   4.000000E-01   4.000000E-01   4.000000E-01   4.000000E-01   4.000000E-01   4.000000E-01   4.000000E-01   4.000000E-01   4.000000E-01   4.000000E-01   4.000000E-01   4.000000E-01   4.000000E-01   4.000000E-01   4.000000E-01   4.000000E-01   4.000000E-01   4.000000E-01   4.000000E-01   4.000000E-01   4.000000E-01   4.000000E-01   4.000000E-01   4.000000E-01   4.000000E-01   4.000000E-01   4.000000E-01   4.000000E-01   4.000000E-01   4.000000E-01   4.000000E-01   4.000000E-01   4.000000E-01   4.000000E-01   4.000000E-01   4.000000E-01   4.000000E-01   4.000000E-01   4.000000E-01   4.000000E-01   4.000000E-01   4.000000E-01   4.000000E-01   4.000000E-01   4.000000E-01   4.000000E-01   4.000000E-01   4.000000E-01   4.000000E-01   4.000000E-01   4.000000E-01   4.000000E-01   4.000000E-01   4.000000E-01   4.000000E-01   4.000000E-01   4.000000E-01   4.000000E-01   4.000000E-01   4.000000E-01   4.000000E-01   4.000000E-01   4.000000E-01   4.000000E-01   4.000000E-01   4.000000E-01   4.000000E-01   4.000000E-01   4.000000E-01   4.000000E-01   4.000000E-01   4.000000E-01   4.000000E-01   4.000000E-01   4.000000E-01   4.000000E-01   4.000000E-01   4.000000E-01   4.000000E-01   4.000000E-01   4.000000E-01   4.000000E-01   4.000000E-01   4.000000E-01   4.000000E-01   4.000000E-01   4.000000E-01   4.000000E-01   4.000000E-01   4.000000E-01   4.000000E-01   4.000000E-01   4.000000E-01   4.000000E-01   4.000000E-01   4.000000E-01   4.000000E-01   4.000000E-01   4.000000E-01   4.000000E-01   4.000000E-01   4.000000E-01   4.000000E-01   4.000000E-01   4.000000E-01   4.000000E-01   4.000000E-01   4.000000E-01   4.000000E-01   4.000000E-01   4.000000E-01   4.000000E-01   4.000000E-01   4.000000E-01   4.000000E-01   4.000000E-01   4.000000E-01   4.000000E-01   4.000000E-01   4.000000E-01   4.000000E-01   4.000000E-01   4.000000E-01   4.000000E-01   4.000000E-01   4.000000E-01   4.000000E-01   4.000000E-01   4.000000E-01   4.000000E-01   4.000000E-01   4.000000E-01   4.000000E-01   4.000000E-01   4.000000E-01   4.000000E-01   4.000000E-01   4.000000E-01   4.000000E-01   4.000000E-01   4.000000E-01   4.000000E-01   4.000000E-01   4.000000E-01   4.000000E-01   4.000000E-01   4.000000E-01   4.000000E-01   4.000000E-01   4.000000E-01   4.000000E-01   4.000000E-01   4.000000E-01   4.000000E-01   4.000000E-01   4.000000E-01   4.000000E-01   4.000000E-01   4.000000E-01   4.000000E-01   4.000000E-01   4.000000E-01   4.000000E-01   4.000000E-01   4.000000E-01   4.000000E-01   4.000000E-01   4.000000E-01   4.000000E-01   4.000000E-01   4.000000E-01   4.000000E-01   4.000000E-01   4.000000E-01   4.000000E-01   4.000000E-01   4.000000E-01   4.000000E-01   4.000000E-01   4.000000E-01   4.000000E-01   4.000000E-01   4.000000E-01   4.000000E-01   4.000000E-01   4.000000E-01   4.000000E-01   4.000000E-01   4.000000E-01   4.000000E-01   4.000000E-01   4.000000E-01   4.000000E-01   4.000000E-01   4.000000E-01   4.000000E-01   4.000000E-01   4.000000E-01   4.000000E-01   4.000000E-01   4.000000E-01   4.000000E-01   4.000000E-01   4.000000E-01   4.000000E-01   4.000000E-01   4.000000E-01   4.000000E-01   4.000000E-01   4.000000E-01   4.000000E-01   4.000000E-01   4.000000E-01   4.000000E-01   4.000000E-01   4.000000E-01   4.000000E-01   4.000000E-01   4.000000E-01   4.000000E-01   4.000000E-01   4.000000E-01   4.000000E-01   4.000000E-01   4.000000E-01   4.000000E-01   4.000000E-01   4.000000E-01   4.000000E-01   4.000000E-01   4.000000E-01   4.000000E-01   4.000000E-01   4.000000E-01   4.000000E-01   4.000000E-01   4.000000E-01   4.000000E-01   4.000000E-01   4.000000E-01   4.000000E-01   4.000000E-01   4.000000E-01   4.000000E-01   4.000000E-01   4.000000E-01   4.000000E-01   4.000000E-01   4.000000E-01   4.000000E-01   4.000000E-01   4.000000E-01   4.000000E-01   4.000000E-01   4.000000E-01   4.000000E-01   4.000000E-01   4.000000E-01   4.000000E-01   4.000000E-01   4.000000E-01   4.000000E-01   4.000000E-01   4.000000E-01   4.000000E-01   4.000000E-01   4.000000E-01   4.000000E-01   4.000000E-01   4.000000E-01   4.000000E-01   4.000000E-01   4.000000E-01   4.000000E-01   4.000000E-01   4.000000E-01   4.000000E-01   4.000000E-01   4.000000E-01   4.000000E-01   4.000000E-01   4.000000E-01   4.000000E-01   4.000000E-01   4.000000E-01   4.000000E-01   4.000000E-01   4.000000E-01   4.000000E-01   4.000000E-01   4.000000E-01   4.000000E-01   4.000000E-01   4.000000E-01   4.000000E-01   4.000000E-01   4.000000E-01   4.000000E-01   4.000000E-01   4.000000E-01   4.000000E-01   4.000000E-01   4.000000E-01   4.000000E-01   4.000000E-01   4.000000E-01   4.000000E-01   4.000000E-01   4.000000E-01   4.000000E-01   4.000000E-01   4.000000E-01   4.000000E-01   4.000000E-01   4.000000E-01   4.000000E-01   4.000000E-01   4.000000E-01   4.000000E-01   4.000000E-01   4.000000E-01   4.000000E-01   4.000000E-01   4.000000E-01   4.000000E-01   4.000000E-01   4.000000E-01   4.000000E-01   4.000000E-01   4.000000E-01   4.000000E-01   4.000000E-01   4.000000E-01   4.000000E-01   4.000000E-01   4.000000E-01   4.000000E-01   4.000000E-01   4.000000E-01   4.000000E-01   4.000000E-01   4.000000E-01   4.000000E-01   4.000000E-01   4.000000E-01   4.000000E-01   4.000000E-01   4.000000E-01   4.000000E-01   4.000000E-01   4.000000E-01   4.000000E-01   4.000000E-01   4.000000E-01   4.000000E-01   4.000000E-01   4.000000E-01   4.000000E-01   4.000000E-01   4.000000E-01   4.000000E-01   4.000000E-01   4.000000E-01   4.000000E-01   4.000000E-01   4.000000E-01   4.000000E-01   4.000000E-01   4.000000E-01   4.000000E-01   4.000000E-01   4.000000E-01   4.000000E-01   4.000000E-01   4.000000E-01   4.000000E-01   4.000000E-01   4.000000E-01   4.000000E-01   4.000000E-01   4.000000E-01   4.000000E-01   4.000000E-01   4.000000E-01   4.000000E-01   4.000000E-01   4.000000E-01   4.000000E-01   4.000000E-01   4.000000E-01   4.000000E-01   4.000000E-01   4.000000E-01   4.000000E-01   4.000000E-01   4.000000E-01   4.000000E-01   4.000000E-01   4.000000E-01   4.000000E-01   4.000000E-01   4.000000E-01   4.000000E-01   4.000000E-01   4.000000E-01   4.000000E-01   4.000000E-01   4.000000E-01   4.000000E-01   4.000000E-01   4.000000E-01   4.000000E-01   4.000000E-01   4.000000E-01   4.000000E-01   4.000000E-01   4.000000E-01   4.000000E-01   4.000000E-01   4.000000E-01   4.000000E-01   4.000000E-01   4.000000E-01   4.000000E-01   4.000000E-01   4.000000E-01   4.000000E-01   4.000000E-01   4.000000E-01   4.000000E-01   4.000000E-01   4.000000E-01   4.000000E-01   4.000000E-01   4.000000E-01   4.000000E-01   4.000000E-01   4.000000E-01   4.000000E-01   4.000000E-01   4.000000E-01   4.000000E-01   4.000000E-01   4.000000E-01   4.000000E-01   4.000000E-01   4.000000E-01   4.000000E-01   4.000000E-01   4.000000E-01   4.000000E-01   4.000000E-01   4.000000E-01   4.000000E-01   4.000000E-01   4.000000E-01   4.000000E-01   4.000000E-01   4.000000E-01   4.000000E-01   4.000000E-01   4.000000E-01   4.000000E-01   4.000000E-01   4.000000E-01   4.000000E-01   4.000000E-01   4.000000E-01   4.000000E-01   4.000000E-01   4.000000E-01   4.000000E-01   4.000000E-01   4.000000E-01   4.000000E-01   4.000000E-01   4.000000E-01   4.000000E-01   4.000000E-01   4.000000E-01   4.000000E-01   4.000000E-01   4.000000E-01   4.000000E-01   4.000000E-01   4.000000E-01   4.000000E-01   4.000000E-01   4.000000E-01   4.000000E-01   4.000000E-01   4.000000E-01   4.000000E-01   4.000000E-01   4.000000E-01   4.000000E-01   4.000000E-01   4.000000E-01   4.000000E-01   4.000000E-01   4.000000E-01   4.000000E-01   4.000000E-01   4.000000E-01   4.000000E-01   4.000000E-01   4.000000E-01   4.000000E-01   4.000000E-01   4.000000E-01   4.000000E-01   4.000000E-01   4.000000E-01   4.000000E-01   4.000000E-01   4.000000E-01   4.000000E-01   4.000000E-01   4.000000E-01   4.000000E-01   4.000000E-01   4.000000E-01   4.000000E-01   4.000000E-01   4.000000E-01   4.000000E-01   4.000000E-01   4.000000E-01   4.000000E-01   4.000000E-01   4.000000E-01   4.000000E-01   4.000000E-01   4.000000E-01   4.000000E-01   4.000000E-01   4.000000E-01   4.000000E-01   4.000000E-01   4.000000E-01   4.000000E-01   4.000000E-01   4.000000E-01   4.000000E-01   4.000000E-01   4.000000E-01   4.000000E-01   4.000000E-01   4.000000E-01   4.000000E-01   4.000000E-01   4.000000E-01   4.000000E-01   4.000000E-01   4.000000E-01   4.000000E-01   4.000000E-01   4.000000E-01   4.000000E-01   4.000000E-01   4.000000E-01   4.000000E-01   4.000000E-01   4.000000E-01   4.000000E-01   4.000000E-01   4.000000E-01   4.000000E-01   4.000000E-01   4.000000E-01   4.000000E-01   4.000000E-01   4.000000E-01   4.000000E-01   4.000000E-01   4.000000E-01   4.000000E-01   4.000000E-01   4.000000E-01   4.000000E-01   4.000000E-01   4.000000E-01   4.000000E-01   4.000000E-01   4.000000E-01   4.000000E-01   4.000000E-01   4.000000E-01   4.000000E-01   4.000000E-01   4.000000E-01   4.000000E-01   4.000000E-01   4.000000E-01   4.000000E-01   4.000000E-01   4.000000E-01   4.000000E-01   4.000000E-01   4.000000E-01   4.000000E-01   4.000000E-01   4.000000E-01   4.000000E-01   4.000000E-01   4.000000E-01   4.000000E-01   4.000000E-01   4.000000E-01   4.000000E-01   4.000000E-01   4.000000E-01   4.000000E-01   4.000000E-01   4.000000E-01   4.000000E-01   4.000000E-01   4.000000E-01   4.000000E-01   4.000000E-01   4.000000E-01   4.000000E-01   4.000000E-01   4.000000E-01   4.000000E-01   4.000000E-01   4.000000E-01   4.000000E-01   4.000000E-01   4.000000E-01   4.000000E-01   4.000000E-01   4.000000E-01   4.000000E-01   4.000000E-01   4.000000E-01   4.000000E-01   4.000000E-01   4.000000E-01   4.000000E-01   4.000000E-01   4.000000E-01   4.000000E-01   4.000000E-01   4.000000E-01   4.000000E-01   4.000000E-01   4.000000E-01   4.000000E-01   4.000000E-01   4.000000E-01   4.000000E-01   4.000000E-01   4.000000E-01   4.000000E-01   4.000000E-01   4.000000E-01   4.000000E-01   4.000000E-01   4.000000E-01   4.000000E-01   4.000000E-01   4.000000E-01   4.000000E-01   4.000000E-01   4.000000E-01   4.000000E-01   4.000000E-01   4.000000E-01   4.000000E-01   4.000000E-01   4.000000E-01   4.000000E-01   4.000000E-01   4.000000E-01   4.000000E-01   4.000000E-01   4.000000E-01   4.000000E-01   4.000000E-01   4.000000E-01   4.000000E-01   4.000000E-01   4.000000E-01   4.000000E-01   4.000000E-01   4.000000E-01   4.000000E-01   4.000000E-01   4.000000E-01   4.000000E-01   4.000000E-01   4.000000E-01   4.000000E-01   4.000000E-01   4.000000E-01   4.000000E-01   4.000000E-01   4.000000E-01   4.000000E-01   4.000000E-01   4.000000E-01   4.000000E-01   4.000000E-01   4.000000E-01   4.000000E-01   4.000000E-01   4.000000E-01   4.000000E-01   4.000000E-01   4.000000E-01   4.000000E-01   4.000000E-01   4.000000E-01   4.000000E-01   4.000000E-01   4.000000E-01   4.000000E-01   4.000000E-01   4.000000E-01   4.000000E-01   4.000000E-01   4.000000E-01   4.000000E-01   4.000000E-01   4.000000E-01   4.000000E-01   4.000000E-01   4.000000E-01   4.000000E-01   4.000000E-01   4.000000E-01   4.000000E-01   4.000000E-01   4.000000E-01   4.000000E-01   4.000000E-01   4.000000E-01   4.000000E-01   4.000000E-01   4.000000E-01   4.000000E-01   4.000000E-01   4.000000E-01   4.000000E-01   4.000000E-01   4.000000E-01   4.000000E-01   4.000000E-01   4.000000E-01   4.000000E-01   4.000000E-01   4.000000E-01   4.000000E-01   4.000000E-01   4.000000E-01   4.000000E-01   4.000000E-01   4.000000E-01   4.000000E-01   4.000000E-01   4.000000E-01   4.000000E-01   4.000000E-01   4.000000E-01   4.000000E-01   4.000000E-01   4.000000E-01   4.000000E-01   4.000000E-01   4.000000E-01   4.000000E-01   4.000000E-01   4.000000E-01   4.000000E-01   4.000000E-01   4.000000E-01   4.000000E-01   4.000000E-01   4.000000E-01   4.000000E-01   4.000000E-01   4.000000E-01   4.000000E-01   4.000000E-01   4.000000E-01   4.000000E-01   4.000000E-01   4.000000E-01   4.000000E-01   4.000000E-01   4.000000E-01   4.000000E-01   4.000000E-01   4.000000E-01   4.000000E-01   4.000000E-01   4.000000E-01   4.000000E-01   4.000000E-01   4.000000E-01   4.000000E-01   4.000000E-01   4.000000E-01   4.000000E-01   4.000000E-01   4.000000E-01   4.000000E-01   4.000000E-01   4.000000E-01   4.000000E-01   4.000000E-01   4.000000E-01   4.000000E-01   4.000000E-01   4.000000E-01   4.000000E-01   4.000000E-01   4.000000E-01   4.000000E-01   4.000000E-01   4.000000E-01   4.000000E-01   4.000000E-01   4.000000E-01   4.000000E-01   4.000000E-01   4.000000E-01   4.000000E-01   4.000000E-01   4.000000E-01   4.000000E-01   4.000000E-01   4.000000E-01   4.000000E-01   4.000000E-01   4.000000E-01   4.000000E-01   4.000000E-01   4.000000E-01   4.000000E-01   4.000000E-01   4.000000E-01   4.000000E-01   4.000000E-01   4.000000E-01   4.000000E-01   4.000000E-01   4.000000E-01   4.000000E-01   4.000000E-01   4.000000E-01   4.000000E-01   4.000000E-01   4.000000E-01   4.000000E-01   4.000000E-01   4.000000E-01   4.000000E-01   4.000000E-01   4.000000E-01   4.000000E-01   4.000000E-01   4.000000E-01   4.000000E-01   4.000000E-01   4.000000E-01   4.000000E-01   4.000000E-01   4.000000E-01   4.000000E-01   4.000000E-01   4.000000E-01   4.000000E-01   4.000000E-01   4.000000E-01   4.000000E-01   4.000000E-01   4.000000E-01   4.000000E-01   4.000000E-01   4.000000E-01   4.000000E-01   4.000000E-01   4.000000E-01   4.000000E-01   4.000000E-01   4.000000E-01   4.000000E-01   4.000000E-01   4.000000E-01   4.000000E-01   4.000000E-01   4.000000E-01   4.000000E-01   4.000000E-01   4.000000E-01   4.000000E-01   4.000000E-01   4.000000E-01   4.000000E-01   4.000000E-01   4.000000E-01   4.000000E-01   4.000000E-01   4.000000E-01   4.000000E-01   4.000000E-01   4.000000E-01   4.000000E-01   4.000000E-01   4.000000E-01   4.000000E-01   4.000000E-01   4.000000E-01   4.000000E-01   4.000000E-01   4.000000E-01   4.000000E-01   4.000000E-01   4.000000E-01   4.000000E-01   4.000000E-01   4.000000E-01   4.000000E-01   4.000000E-01   4.000000E-01   4.000000E-01   4.000000E-01   4.000000E-01   4.000000E-01   4.000000E-01   4.000000E-01   4.000000E-01   4.000000E-01   4.000000E-01   4.000000E-01   4.000000E-01   4.000000E-01   4.000000E-01   4.000000E-01   4.000000E-01   4.000000E-01   4.000000E-01   4.000000E-01   4.000000E-01   4.000000E-01   4.000000E-01   4.000000E-01   4.000000E-01   4.000000E-01   4.000000E-01   4.000000E-01   4.000000E-01   4.000000E-01   4.000000E-01   4.000000E-01   4.000000E-01   4.000000E-01   4.000000E-01   4.000000E-01   4.000000E-01   4.000000E-01   4.000000E-01   4.000000E-01   4.000000E-01   4.000000E-01   4.000000E-01   4.000000E-01   4.000000E-01   4.000000E-01   4.000000E-01   4.000000E-01   4.000000E-01   4.000000E-01   4.000000E-01   4.000000E-01   4.000000E-01   4.000000E-01   4.000000E-01   4.000000E-01   4.000000E-01   4.000000E-01   4.000000E-01   4.000000E-01   4.000000E-01   4.000000E-01   4.000000E-01   4.000000E-01   4.000000E-01   4.000000E-01   4.000000E-01   4.000000E-01   4.000000E-01   4.000000E-01   4.000000E-01   4.000000E-01   4.000000E-01   4.000000E-01   4.000000E-01   4.000000E-01   4.000000E-01   4.000000E-01   4.000000E-01   4.000000E-01   4.000000E-01   4.000000E-01   4.000000E-01   4.000000E-01   4.000000E-01   4.000000E-01   4.000000E-01   4.000000E-01   4.000000E-01   4.000000E-01   4.000000E-01   4.000000E-01   4.000000E-01   4.000000E-01   4.000000E-01   4.000000E-01   4.000000E-01   4.000000E-01   4.000000E-01   4.000000E-01   4.000000E-01   4.000000E-01   4.000000E-01   4.000000E-01   4.000000E-01   4.000000E-01   4.000000E-01   4.000000E-01   4.000000E-01   4.000000E-01   4.000000E-01   4.000000E-01   4.000000E-01   4.000000E-01   4.000000E-01   4.000000E-01   4.000000E-01   4.000000E-01   4.000000E-01   4.000000E-01   4.000000E-01   4.000000E-01   4.000000E-01   4.000000E-01   4.000000E-01   4.000000E-01   4.000000E-01   4.000000E-01   4.000000E-01   4.000000E-01   4.000000E-01   4.000000E-01   4.000000E-01   4.000000E-01   4.000000E-01   4.000000E-01   4.000000E-01   4.000000E-01   4.000000E-01   4.000000E-01   4.000000E-01   4.000000E-01   4.000000E-01   4.000000E-01   4.000000E-01   4.000000E-01   4.000000E-01   4.000000E-01   4.000000E-01   4.000000E-01   4.000000E-01   4.000000E-01   4.000000E-01   4.000000E-01   4.000000E-01   4.000000E-01   4.000000E-01   4.000000E-01   4.000000E-01   4.000000E-01   4.000000E-01   4.000000E-01   4.000000E-01   4.000000E-01   4.000000E-01   4.000000E-01   4.000000E-01   4.000000E-01   4.000000E-01   4.000000E-01   4.000000E-01   4.000000E-01   4.000000E-01   4.000000E-01   4.000000E-01   4.000000E-01   4.000000E-01   4.000000E-01   4.000000E-01   4.000000E-01   4.000000E-01   4.000000E-01   4.000000E-01   4.000000E-01   4.000000E-01   4.000000E-01   4.000000E-01   4.000000E-01   4.000000E-01   4.000000E-01   4.000000E-01   4.000000E-01   4.000000E-01   4.000000E-01   4.000000E-01   4.000000E-01   4.000000E-01   4.000000E-01   4.000000E-01   4.000000E-01   4.000000E-01   4.000000E-01   4.000000E-01   4.000000E-01   4.000000E-01   4.000000E-01   4.000000E-01   4.000000E-01   4.000000E-01   4.000000E-01   4.000000E-01   4.000000E-01   4.000000E-01   4.000000E-01   4.000000E-01   4.000000E-01   4.000000E-01   4.000000E-01   4.000000E-01   4.000000E-01   4.000000E-01   4.000000E-01   4.000000E-01   4.000000E-01   4.000000E-01   4.000000E-01   4.000000E-01   4.000000E-01   4.000000E-01   4.000000E-01   4.000000E-01   4.000000E-01   4.000000E-01   4.000000E-01   4.000000E-01   4.000000E-01   4.000000E-01   4.000000E-01   4.000000E-01   4.000000E-01   4.000000E-01   4.000000E-01   4.000000E-01   4.000000E-01   4.000000E-01   4.000000E-01   4.000000E-01   4.000000E-01   4.000000E-01   4.000000E-01   4.000000E-01   4.000000E-01   4.000000E-01   4.000000E-01   4.000000E-01   4.000000E-01   4.000000E-01   4.000000E-01   4.000000E-01   4.000000E-01   4.000000E-01   4.000000E-01   4.000000E-01   4.000000E-01   4.000000E-01   4.000000E-01   4.000000E-01   4.000000E-01   4.000000E-01   4.000000E-01   4.000000E-01   4.000000E-01   4.000000E-01   4.000000E-01   4.000000E-01   4.000000E-01   4.000000E-01   4.000000E-01   4.000000E-01   4.000000E-01   4.000000E-01   4.000000E-01   4.000000E-01   4.000000E-01   4.000000E-01   4.000000E-01   