<?xml version="1.0"?>
<!-- Time =  7.0051829269476906E-01s -->
<VTKFile type="PolyData" version="0.1" byte_order="LittleEndian">
<PolyData>
<Piece NumberOfPoints="0000028800" NumberOfVerts="0" NumberOfLines="0" NumberOfStrips="0" NumberOfPolys="0">
<Points>
<DataArray type="Float32" Name="Position" NumberOfComponents="3" format="ascii">
  8.168679E-01   1.976589E-01   5.685871E-01   1.344557E+00   1.960124E-01   4.805547E-01   1.940632E+00   1.959912E-01   2.214466E-01   3.443797E+00   1.978865E-01   1.989112E-01   3.885308E+00   1.959544E-01   5.683273E-01   5.680888E+00   1.996419E-01   5.406131E-01   6.756190E+00   4.063539E+00   1.567230E+00   7.842585E+00   7.589470E+00   1.504742E+00   7.424982E+00   5.710112E+00   1.052901E+00   5.490339E-01   1.097797E+01   4.921876E+00   1.214014E+00   9.121401E+00   8.492726E-01   2.671371E+00   1.350643E+01   3.635033E+00   4.214081E+00   1.272042E+01   1.146564E+00   2.857514E+00   1.246715E+01   1.075394E+00   1.751950E+00   1.144304E+01   2.236874E+00   7.601631E+00   1.593379E+01   3.289549E+00   1.382354E+01   1.155450E+01   4.594843E+00   1.320088E+01   1.209236E+01   3.357518E+00   6.583404E-01   1.009835E+01   4.521533E+00   1.384693E+01   9.530631E+00   1.810605E+00   2.428503E+00   9.283923E+00   4.450064E+00   6.795403E+00   1.320581E+01   2.023348E+00   4.956383E+00   1.186767E+01   2.115005E+00   8.100641E+00   9.742117E-01   1.337337E+00   8.530438E+00   2.074929E-01   8.735031E-01   1.187506E+01   1.968012E-01   5.957860E-01   1.261136E+01   1.994945E-01   1.991761E-01   1.283708E+01   1.994742E-01   5.281021E-01   1.354953E+01   1.953337E-01   5.254262E-01   1.401745E+01   1.965563E-01   8.755322E-01   2.070014E-01   1.960635E-01   1.001969E+00   1.133595E+00   1.987190E-01   9.434381E-01   2.336112E+00   1.987033E-01   1.237973E+00   2.657348E+00   1.968572E-01   9.940181E-01   3.238900E+00   1.990478E-01   9.251255E-01   4.217211E+00   1.983814E-01   8.747382E-01   6.603783E+00   2.965489E-01   5.932624E-01   6.347645E+00   2.013338E-01   8.860291E-01   6.931348E+00   3.621370E+00   1.466677E+00   5.806681E+00   1.262942E+01   6.669886E-01   5.763240E+00   1.232917E+01   1.951991E+00   3.757649E-01   8.708207E+00   3.597676E+00   7.290953E-01   1.084555E+01   4.484162E+00   3.098972E+00   1.321910E+01   3.857133E+00   7.735451E+00   1.426048E+01   1.375519E+00   4.176448E+00   1.439315E+01   2.371866E+00   2.298213E+00   1.270370E+01   3.321803E+00   5.234648E+00   1.410496E+01   2.201257E+00   1.384252E+01   1.063794E+01   2.964951E+00   3.276814E+00   1.291970E+01   3.124086E+00   1.407353E+01   8.464731E+00   4.033548E+00   2.384300E+00   8.486915E+00   3.011159E+00   7.213906E+00   2.550282E+00   8.177623E-01   7.500865E+00   1.034182E+01   3.174412E+00   9.525176E+00   1.999020E-01   2.030652E-01   1.022473E+01   1.997490E-01   1.285840E+00   1.169838E+01   1.968081E-01   1.101841E+00   1.293401E+01   1.996541E-01   9.154075E-01   1.332899E+01   1.955706E-01   8.596010E-01   1.390481E+01   4.081506E-01   5.222181E-01   1.470554E+01   1.998852E-01   6.194214E-01   1.990082E-01   1.976748E-01   5.988181E-01   1.949897E+00   1.983203E-01   8.897000E-01   2.275918E+00   1.950658E-01   5.430595E-01   2.635076E+00   1.977463E-01   1.991301E-01   3.009119E+00   1.993204E-01   5.984365E-01   5.045678E+00   1.983115E-01   2.001018E-01   7.146437E+00   1.119200E+00   9.210768E-01   5.057262E+00   1.131610E+01   2.061138E+00   2.083895E-01   9.764507E+00   7.317491E-01   1.953236E+00   9.678214E+00   4.178433E+00   2.227391E+00   9.062200E+00   2.935955E+00   8.779153E-01   9.512242E+00   2.783112E+00   2.405057E+00   8.778050E+00   4.369599E+00   4.777121E+00   1.430697E+01   2.364916E+00   1.080926E+00   9.080238E+00   4.269584E+00   9.475310E-01   1.008125E+01   3.094453E+00   4.425075E+00   1.372252E+01   1.554086E+00   1.857436E+00   1.155420E+01   3.528557E+00   1.249869E+01   9.355015E+00   4.039158E+00   1.238645E+01   8.838367E+00   2.344000E+00   2.920703E+00   1.313726E+01   2.980740E+00   6.278025E+00   1.281519E+01   5.123323E-01   8.968060E+00   1.216940E+01   1.609263E+00   7.712739E+00   6.006694E-01   3.288406E-01   9.865307E+00   1.978202E-01   4.383057E-01   1.083567E+01   1.997561E-01   5.427088E-01   1.197416E+01   1.987954E-01   2.083696E-01   1.226610E+01   1.986991E-01   5.170919E-01   1.331960E+01   1.982223E-01   1.986307E-01   1.424281E+01   1.972772E-01   5.450611E-01   1.999667E-01   1.998307E-01   1.994046E-01   6.635513E-01   1.976018E-01   1.993511E-01   1.576557E+00   3.566715E-01   1.982210E-01   2.286527E+00   3.927840E-01   1.975709E-01   3.036121E+00   2.146859E-01   1.998212E-01   4.194902E+00   1.997553E-01   2.008917E-01   5.894826E+00   1.998553E-01   1.999137E-01   6.680267E+00   1.078860E+01   2.313813E+00   8.618058E+00   1.177326E+01   2.517446E+00   1.411658E+01   9.716256E+00   4.529740E-01   1.001449E+01   1.071157E+01   8.875374E-01   5.677394E+00   1.291655E+01   1.580233E+00   5.746214E+00   1.510554E+01   1.542972E+00   8.207353E-01   1.050373E+01   4.278572E+00   3.950327E+00   1.209723E+01   2.857403E+00   2.005130E+00   8.868858E+00   3.205070E+00   1.425344E+01   8.721040E+00   2.439556E+00   1.147084E+01   1.366365E+01   4.274052E+00   1.477548E+01   9.282179E+00   2.798154E+00   1.313813E+01   9.961954E+00   3.233294E+00   2.076975E+00   8.416094E+00   4.314548E+00   1.287389E+01   9.324921E+00   1.950423E+00   1.150658E+01   8.729729E+00   2.693900E+00   8.341981E+00   1.236340E+01   2.692244E-01   9.097666E+00   1.184852E+01   1.380170E+00   8.203354E+00   6.351182E-01   9.283467E-01   1.063379E+01   1.976435E-01   1.986973E-01   1.157462E+01   1.980174E-01   1.984869E-01   1.229250E+01   4.398933E-01   1.995473E-01   1.296709E+01   3.871267E-01   1.998366E-01   1.402601E+01   1.978102E-01   2.039979E-01   1.479362E+01   1.963194E-01   1.977691E-01   1.102250E+00   4.650408E-01   6.468663E-01   1.062502E+00   1.993091E-01   1.989764E-01   1.945161E+00   4.170847E-01   5.560446E-01   2.641805E+00   3.531359E-01   5.666870E-01   4.424252E+00   1.996028E-01   5.327463E-01   5.049407E+00   1.995169E-01   8.829401E-01   6.699186E+00   4.350456E-01   9.824162E-01   7.907349E+00   1.301568E+01   2.293021E+00   9.265203E+00   1.095806E+01   1.480959E+00   1.326916E+00   9.470948E+00   4.771158E+00   1.347274E+01   8.543618E+00   2.694730E+00   3.615480E+00   1.281924E+01   3.002691E-01   2.215356E+00   1.148446E+01   1.743464E+00   6.062598E+00   1.519272E+01   3.111139E+00   1.756219E+00   1.137278E+01   2.841897E+00   9.794305E-01   1.166019E+01   4.699423E+00   1.410850E+01   1.120643E+01   3.370022E+00   2.328838E+00   1.185374E+01   3.023922E+00   1.327465E+01   1.177983E+01   3.047904E+00   1.387680E+01   1.174521E+01   3.300737E+00   1.135304E+01   8.515147E+00   2.995399E+00   3.882468E+00   1.047172E+01   4.046035E-01   8.477762E+00   1.374280E+01   3.261663E-01   7.067445E+00   1.322188E+01   7.570516E-01   8.238708E+00   6.518931E+00   2.470543E+00   8.810838E+00   1.999555E-01   5.872507E-01   1.020725E+01   1.997722E-01   8.495000E-01   1.130679E+01   1.997989E-01   4.951036E-01   1.255029E+01   1.970146E-01   8.060168E-01   1.367303E+01   3.840027E-01   1.977518E-01   1.441003E+01   3.083642E-01   1.995349E-01   1.988871E-01   5.783005E-01   8.976583E-01   5.157446E-01   3.932349E-01   7.412869E-01   1.556617E+00   1.999460E-01   8.190655E-01   2.767604E+00   5.619192E-01   8.826464E-01   3.466206E+00   1.984804E-01   5.974515E-01   5.255867E+00   2.197970E-01   5.400766E-01   6.168211E+00   5.009270E-01   1.081560E+00   6.725555E+00   1.178131E+01   1.944156E+00   8.669149E+00   1.191389E+01   1.236780E+00   1.013784E+00   9.471858E+00   2.725038E-01   1.371011E+00   8.523816E+00   4.863461E-01   1.971133E+00   1.109729E+01   2.543869E+00   2.631986E+00   1.187711E+01   1.952689E+00   3.219596E+00   1.325399E+01   1.911089E+00   3.156699E+00   1.281688E+01   5.963238E-01   1.735433E+00   1.235578E+01   2.337507E+00   1.415954E+01   1.027927E+01   8.462571E-01   1.410907E+01   9.413893E+00   3.659651E+00   1.416599E+01   9.891111E+00   4.919670E+00   6.244480E-01   9.654546E+00   3.950394E+00   1.044895E+01   9.516797E+00   2.334191E-01   1.438279E+00   8.383650E+00   3.090142E+00   5.230432E+00   1.167144E+01   1.862605E+00   9.052572E+00   1.291309E+01   2.980018E+00   6.997052E+00   2.194033E+00   8.545509E-01   8.159431E+00   1.115447E+00   9.369745E-01   1.066063E+01   1.986120E-01   9.018686E-01   1.146609E+01   3.637975E-01   8.231934E-01   1.443319E+01   5.459760E-01   5.621411E-01   1.435821E+01   5.106867E-01   1.150815E+00   1.476943E+01   8.792956E-01   5.976298E-01   8.594998E-01   5.181756E-01   3.343159E-01   1.233060E+00   5.605180E-01   1.998259E-01   1.559435E+00   5.196624E-01   5.617308E-01   2.767682E+00   5.735476E-01   1.995392E-01   3.819045E+00   3.362285E-01   1.998089E-01   4.645971E+00   1.958340E-01   1.999184E-01   6.647608E+00   4.153924E-01   2.007068E-01   6.980669E+00   1.278273E+01   6.379655E-01   2.048786E+00   8.386143E+00   3.352870E+00   1.385571E+01   1.013179E+01   2.245270E-01   1.380901E+00   1.044149E+01   1.345748E+00   1.715659E+00   9.367114E+00   3.783147E+00   1.400326E+00   1.235843E+01   4.454264E+00   1.352508E+00   8.748950E+00   3.222647E+00   1.386703E+01   1.119290E+01   2.945379E+00   1.380116E+01   1.048039E+01   6.821360E-01   1.284225E+01   1.203664E+01   1.937169E+00   4.103457E-01   1.010751E+01   2.948911E+00   1.412799E+01   8.992782E+00   3.568267E+00   1.278085E+00   8.885814E+00   1.718156E+00   1.351834E+01   9.223421E+00   2.908875E+00   7.620860E+00   1.327778E+01   2.043452E+00   8.513204E+00   1.273999E+01   8.436130E-01   5.803287E+00   1.318131E+01   3.072865E+00   8.910518E+00   1.994318E-01   1.998561E-01   1.103893E+01   2.278978E-01   1.996284E-01   1.132347E+01   5.091570E-01   2.062670E-01   1.354038E+01   5.933667E-01   5.266193E-01   1.404725E+01   5.956641E-01   1.995415E-01   1.480137E+01   5.309801E-01  
[...]
<PointData Scalars="Diameter" Vectors="Velocity">
<DataArray type="Float32" Name="Diameter" format="ascii">
  4.000000E-01   4.000000E-01   4.000000E-01   4.000000E-01   4.000000E-01   4.000000E-01   4.000000E-01   4.000000E-01   4.000000E-01   4.000000E-01   4.000000E-01   4.000000E-01   4.000000E-01   4.000000E-01   4.000000E-01   4.000000E-01   4.000000E-01   4.000000E-01   4.000000E-01   4.000000E-01   4.000000E-01   4.000000E-01   4.000000E-01   4.000000E-01   4.000000E-01   4.000000E-01   4.000000E-01   4.000000E-01   4.000000E-01   4.000000E-01   4.000000E-01   4.000000E-01   4.000000E-01   4.000000E-01   4.000000E-01   4.000000E-01   4.000000E-01   4.000000E-01   4.000000E-01   4.000000E-01   4.000000E-01   4.000000E-01   4.000000E-01   4.000000E-01   4.000000E-01   4.000000E-01   4.000000E-01   4.000000E-01   4.000000E-01   4.000000E-01   4.000000E-01   4.000000E-01   4.000000E-01   4.000000E-01   4.000000E-01   4.000000E-01   4.000000E-01   4.000000E-01   4.000000E-01   4.000000E-01   4.000000E-01   4.000000E-01   4.000000E-01   4.000000E-01   4.000000E-01   4.000000E-01   4.000000E-01   4.000000E-01   4.000000E-01   4.000000E-01   4.000000E-01   4.000000E-01   4.000000E-01   4.000000E-01   4.000000E-01   4.000000E-01   4.000000E-01   4.000000E-01   4.000000E-01   4.000000E-01   4.000000E-01   4.000000E-01   4.000000E-01   4.000000E-01   4.000000E-01   4.000000E-01   4.000000E-01   4.000000E-01   4.000000E-01   4.000000E-01   4.000000E-01   4.000000E-01   4.000000E-01   4.000000E-01   4.000000E-01   4.000000E-01   4.000000E-01   4.000000E-01   4.000000E-01   4.000000E-01   4.000000E-01   4.000000E-01   4.000000E-01   4.000000E-01   4.000000E-01   4.000000E-01   4.000000E-01   4.000000E-01   4.000000E-01   4.000000E-01   4.000000E-01   4.000000E-01   4.000000E-01   4.000000E-01   4.000000E-01   4.000000E-01   4.000000E-01   4.000000E-01   4.000000E-01   4.000000E-01   4.000000E-01   4.000000E-01   4.000000E-01   4.000000E-01   4.000000E-01   4.000000E-01   4.000000E-01   4.000000E-01   4.000000E-01   4.000000E-01   4.000000E-01   4.000000E-01   4.000000E-01   4.000000E-01   4.000000E-01   4.000000E-01   4.000000E-01   4.000000E-01   4.000000E-01   4.000000E-01   4.000000E-01   4.000000E-01   4.000000E-01   4.000000E-01   4.000000E-01   4.000000E-01   4.000000E-01   4.000000E-01   4.000000E-01   4.000000E-01   4.000000E-01   4.000000E-01   4.000000E-01   4.000000E-01   4.000000E-01   4.000000E-01   4.000000E-01   4.000000E-01   4.000000E-01   4.000000E-01   4.000000E-01   4.000000E-01   4.000000E-01   4.000000E-01   4.000000E-01   4.000000E-01   4.000000E-01   4.000000E-01   4.000000E-01   4.000000E-01   4.000000E-01   4.000000E-01   4.000000E-01   4.000000E-01   4.000000E-01   4.000000E-01   4.000000E-01   4.000000E-01   4.000000E-01   4.000000E-01   4.000000E-01   4.000000E-01   4.000000E-01   4.000000E-01   4.000000E-01   4.000000E-01   4.000000E-01   4.000000E-01   4.000000E-01   4.000000E-01   4.000000E-01   4.000000E-01   4.000000E-01   4.000000E-01   4.000000E-01   4.000000E-01   4.000000E-01   4.000000E-01   4.000000E-01   4.000000E-01   4.000000E-01   4.000000E-01   4.000000E-01   4.000000E-01   4.000000E-01   4.000000E-01   4.000000E-01   4.000000E-01   4.000000E-01   4.000000E-01   4.000000E-01   4.000000E-01   4.000000E-01   4.000000E-01   4.000000E-01   4.000000E-01   4.000000E-01   4.000000E-01   4.000000E-01   4.000000E-01   4.000000E-01   4.000000E-01   4.000000E-01   4.000000E-01   4.000000E-01   4.000000E-01   4.000000E-01   4.000000E-01   4.000000E-01   4.000000E-01   4.000000E-01   4.000000E-01   4.000000E-01   4.000000E-01   4.000000E-01   4.000000E-01   4.000000E-01   4.000000E-01   4.000000E-01   4.000000E-01   4.000000E-01   4.000000E-01   4.000000E-01   4.000000E-01   4.000000E-01   4.000000E-01   4.000000E-01   4.000000E-01   4.000000E-01   4.000000E-01   4.000000E-01   4.000000E-01   4.000000E-01   4.000000E-01   4.000000E-01   4.000000E-01   4.000000E-01   4.000000E-01   4.000000E-01   4.000000E-01   4.000000E-01   4.000000E-01   4.000000E-01   4.000000E-01   4.000000E-01   4.000000E-01   4.000000E-01   4.000000E-01   4.000000E-01   4.000000E-01   4.000000E-01   4.000000E-01   4.000000E-01   4.000000E-01   4.000000E-01   4.000000E-01   4.000000E-01   4.000000E-01   4.000000E-01   4.000000E-01   4.000000E-01   4.000000E-01   4.000000E-01   4.000000E-01   4.000000E-01   4.000000E-01   4.000000E-01   4.000000E-01   4.000000E-01   4.000000E-01   4.000000E-01   4.000000E-01   4.000000E-01   4.000000E-01   4.000000E-01   4.000000E-01   4.000000E-01   4.000000E-01   4.000000E-01   4.000000E-01   4.000000E-01   4.000000E-01   4.000000E-01   4.000000E-01   4.000000E-01   4.000000E-01   4.000000E-01   4.000000E-01   4.000000E-01   4.000000E-01   4.000000E-01   4.000000E-01   4.000000E-01   4.000000E-01   4.000000E-01   4.000000E-01   4.000000E-01   4.000000E-01   4.000000E-01   4.000000E-01   4.000000E-01   4.000000E-01   4.000000E-01   4.000000E-01   4.000000E-01   4.000000E-01   4.000000E-01   4.000000E-01   4.000000E-01   4.000000E-01   4.000000E-01   4.000000E-01   4.000000E-01   4.000000E-01   4.000000E-01   4.000000E-01   4.000000E-01   4.000000E-01   4.000000E-01   4.000000E-01   4.000000E-01   4.000000E-01   4.000000E-01   4.000000E-01   4.000000E-01   4.000000E-01   4.000000E-01   4.000000E-01   4.000000E-01   4.000000E-01   4.000000E-01   4.000000E-01   4.000000E-01   4.000000E-01   4.000000E-01   4.000000E-01   4.000000E-01   4.000000E-01   4.000000E-01   4.000000E-01   4.000000E-01   4.000000E-01   4.000000E-01   4.000000E-01   4.000000E-01   4.000000E-01   4.000000E-01   4.000000E-01   4.000000E-01   4.000000E-01   4.000000E-01   4.000000E-01   4.000000E-01   4.000000E-01   4.000000E-01   4.000000E-01   4.000000E-01   4.000000E-01   4.000000E-01   4.000000E-01   4.000000E-01   4.000000E-01   4.000000E-01   4.000000E-01   4.000000E-01   4.000000E-01   4.000000E-01   4.000000E-01   4.000000E-01   4.000000E-01   4.000000E-01   4.000000E-01   4.000000E-01   4.000000E-01   4.000000E-01   4.000000E-01   4.000000E-01   4.000000E-01   4.000000E-01   4.000000E-01   4.000000E-01   4.000000E-01   4.000000E-01   4.000000E-01   4.000000E-01   4.000000E-01   4.000000E-01   4.000000E-01   4.000000E-01   4.000000E-01   4.000000E-01   4.000000E-01   4.000000E-01   4.000000E-01   4.000000E-01   4.000000E-01   4.000000E-01   4.000000E-01   4.000000E-01   4.000000E-01   4.000000E-01   4.000000E-01   4.000000E-01   4.000000E-01   4.000000E-01   4.000000E-01   4.000000E-01   4.000000E-01   4.000000E-01   4.000000E-01   4.000000E-01   4.000000E-01   4.000000E-01   4.000000E-01   4.000000E-01   4.000000E-01   4.000000E-01   4.000000E-01   4.000000E-01   4.000000E-01   4.000000E-01   4.000000E-01   4.000000E-01   4.000000E-01   4.000000E-01   4.000000E-01   4.000000E-01   4.000000E-01   4.000000E-01   4.000000E-01   4.000000E-01   4.000000E-01   4.000000E-01   4.000000E-01   4.000000E-01   4.000000E-01   4.000000E-01   4.000000E-01   4.000000E-01   4.000000E-01   4.000000E-01   4.000000E-01   4.000000E-01   4.000000E-01   4.000000E-01   4.000000E-01   4.000000E-01   4.000000E-01   4.000000E-01   4.000000E-01   4.000000E-01   4.000000E-01   4.000000E-01   4.000000E-01   4.000000E-01   4.000000E-01   4.000000E-01   4.000000E-01   4.000000E-01   4.000000E-01   4.000000E-01   4.000000E-01   4.000000E-01   4.000000E-01   4.000000E-01   4.000000E-01   4.000000E-01   4.000000E-01   4.000000E-01   4.000000E-01   4.000000E-01   4.000000E-01   4.000000E-01   4.000000E-01   4.000000E-01   4.000000E-01   4.000000E-01   4.000000E-01   4.000000E-01   4.000000E-01   4.000000E-01   4.000000E-01   4.000000E-01   4.000000E-01   4.000000E-01   4.000000E-01   4.000000E-01   4.000000E-01   4.000000E-01   4.000000E-01   4.000000E-01   4.000000E-01   4.000000E-01   4.000000E-01   4.000000E-01   4.000000E-01   4.000000E-01   4.000000E-01   4.000000E-01   4.000000E-01   4.000000E-01   4.000000E-01   4.000000E-01   4.000000E-01   4.000000E-01   4.000000E-01   4.000000E-01   4.000000E-01   4.000000E-01   4.000000E-01   4.000000E-01   4.000000E-01   4.000000E-01   4.000000E-01   4.000000E-01   4.000000E-01   4.000000E-01   4.000000E-01   4.000000E-01   4.000000E-01   4.000000E-01   4.000000E-01   4.000000E-01   4.000000E-01   4.000000E-01   4.000000E-01   4.000000E-01   4.000000E-01   4.000000E-01   4.000000E-01   4.000000E-01   4.000000E-01   4.000000E-01   4.000000E-01   4.000000E-01   4.000000E-01   4.000000E-01   4.000000E-01   4.000000E-01   4.000000E-01   4.000000E-01   4.000000E-01   4.000000E-01   4.000000E-01   4.000000E-01   4.000000E-01   4.000000E-01   4.000000E-01   4.000000E-01   4.000000E-01   4.000000E-01   4.000000E-01   4.000000E-01   4.000000E-01   4.000000E-01   4.000000E-01   4.000000E-01   4.000000E-01   4.000000E-01   4.000000E-01   4.000000E-01   4.000000E-01   4.000000E-01   4.000000E-01   4.000000E-01   4.000000E-01   4.000000E-01   4.000000E-01   4.000000E-01   4.000000E-01   4.000000E-01   4.000000E-01   4.000000E-01   4.000000E-01   4.000000E-01   4.000000E-01   4.000000E-01   4.000000E-01   4.000000E-01   4.000000E-01   4.000000E-01   4.000000E-01   4.000000E-01   4.000000E-01   4.000000E-01   4.000000E-01   4.000000E-01   4.000000E-01   4.000000E-01   4.000000E-01   4.000000E-01   4.000000E-01   4.000000E-01   4.000000E-01   4.000000E-01   4.000000E-01   4.000000E-01   4.000000E-01   4.000000E-01   4.000000E-01   4.000000E-01   4.000000E-01   4.000000E-01   4.000000E-01   4.000000E-01   4.000000E-01   4.000000E-01   4.000000E-01   4.000000E-01   4.000000E-01   4.000000E-01   4.000000E-01   4.000000E-01   4.000000E-01   4.000000E-01   4.000000E-01   4.000000E-01   4.000000E-01   4.000000E-01   4.000000E-01   4.000000E-01   4.000000E-01   4.000000E-01   4.000000E-01   4.000000E-01   4.000000E-01   4.000000E-01   4.000000E-01   4.000000E-01   4.000000E-01   4.000000E-01   4.000000E-01   4.000000E-01   4.000000E-01   4.000000E-01   4.000000E-01   4.000000E-01   4.000000E-01   4.000000E-01   4.000000E-01   4.000000E-01   4.000000E-01   4.000000E-01   4.000000E-01   4.000000E-01   4.000000E-01   4.000000E-01   4.000000E-01   4.000000E-01   4.000000E-01   4.000000E-01   4.000000E-01   4.000000E-01   4.000000E-01   4.000000E-01   4.000000E-01   4.000000E-01   4.000000E-01   4.000000E-01   4.000000E-01   4.000000E-01   4.000000E-01   4.000000E-01   4.000000E-01   4.000000E-01   4.000000E-01   4.000000E-01   4.000000E-01   4.000000E-01   4.000000E-01   4.000000E-01   4.000000E-01   4.000000E-01   4.000000E-01   4.000000E-01   4.000000E-01   4.000000E-01   4.000000E-01   4.000000E-01   4.000000E-01   4.000000E-01   4.000000E-01   4.000000E-01   4.000000E-01   4.000000E-01   4.000000E-01   4.000000E-01   4.000000E-01   4.000000E-01   4.000000E-01   4.000000E-01   4.000000E-01   4.000000E-01   4.000000E-01   4.000000E-01   4.000000E-01   4.000000E-01   4.000000E-01   4.000000E-01   4.000000E-01   4.000000E-01   4.000000E-01   4.000000E-01   4.000000E-01   4.000000E-01   4.000000E-01   4.000000E-01   4.000000E-01   4.000000E-01   4.000000E-01   4.000000E-01   4.000000E-01   4.000000E-01   4.000000E-01   4.000000E-01   4.000000E-01   4.000000E-01   4.000000E-01   4.000000E-01   4.000000E-01   4.000000E-01   4.000000E-01   4.000000E-01   4.000000E-01   4.000000E-01   4.000000E-01   4.000000E-01   4.000000E-01   4.000000E-01   4.000000E-01   4.000000E-01   4.000000E-01   4.000000E-01   4.000000E-01   4.000000E-01   4.000000E-01   4.000000E-01   4.000000E-01   4.000000E-01   4.000000E-01   4.000000E-01   4.000000E-01   4.000000E-01   4.000000E-01   4.000000E-01   4.000000E-01   4.000000E-01   4.000000E-01   4.000000E-01   4.000000E-01   4.000000E-01   4.000000E-01   4.000000E-01   4.000000E-01   4.000000E-01   4.000000E-01   4.000000E-01   4.000000E-01   4.000000E-01   4.000000E-01   4.000000E-01   4.000000E-01   4.000000E-01   4.000000E-01   4.000000E-01   4.000000E-01   4.000000E-01   4.000000E-01   4.000000E-01   4.000000E-01   4.000000E-01   4.000000E-01   4.000000E-01   4.000000E-01   4.000000E-01   4.000000E-01   4.000000E-01   4.000000E-01   4.000000E-01   4.000000E-01   4.000000E-01   4.000000E-01   4.000000E-01   4.000000E-01   4.000000E-01   4.000000E-01   4.000000E-01   4.000000E-01   4.000000E-01   4.000000E-01   4.000000E-01   4.000000E-01   4.000000E-01   4.000000E-01   4.000000E-01   4.000000E-01   4.000000E-01   4.000000E-01   4.000000E-01   4.000000E-01   4.000000E-01   4.000000E-01   4.000000E-01   4.000000E-01   4.000000E-01   4.000000E-01   4.000000E-01   4.000000E-01   4.000000E-01   4.000000E-01   4.000000E-01   4.000000E-01   4.000000E-01   4.000000E-01   4.000000E-01   4.000000E-01   4.000000E-01   4.000000E-01   4.000000E-01   4.000000E-01   4.000000E-01   4.000000E-01   4.000000E-01   4.000000E-01   4.000000E-01   4.000000E-01   4.000000E-01   4.000000E-01   4.000000E-01   4.000000E-01   4.000000E-01   4.000000E-01   4.000000E-01   4.000000E-01   4.000000E-01   4.000000E-01   4.000000E-01   4.000000E-01   4.000000E-01   4.000000E-01   4.000000E-01   4.000000E-01   4.000000E-01   4.000000E-01   4.000000E-01   4.000000E-01   4.000000E-01   4.000000E-01   4.000000E-01   4.000000E-01   4.000000E-01   4.000000E-01   4.000000E-01   4.000000E-01   4.000000E-01   4.000000E-01   4.000000E-01   4.000000E-01   4.000000E-01   4.000000E-01   4.000000E-01   4.000000E-01   4.000000E-01   4.000000E-01   4.000000E-01   4.000000E-01   4.000000E-01   4.000000E-01   4.000000E-01   4.000000E-01   4.000000E-01   4.000000E-01   4.000000E-01   4.000000E-01   4.000000E-01   4.000000E-01   4.000000E-01   4.000000E-01   4.000000E-01   4.000000E-01   4.000000E-01   4.000000E-01   4.000000E-01   4.000000E-01   4.000000E-01   4.000000E-01   4.000000E-01   4.000000E-01   4.000000E-01   4.000000E-01   4.000000E-01   4.000000E-01   4.000000E-01   4.000000E-01   4.000000E-01   4.000000E-01   4.000000E-01   4.000000E-01   4.000000E-01   4.000000E-01   4.000000E-01   4.000000E-01   4.000000E-01   4.000000E-01   4.000000E-01   4.000000E-01   4.000000E-01   4.000000E-01   4.000000E-01   4.000000E-01   4.000000E-01   4.000000E-01   4.000000E-01   4.000000E-01   4.000000E-01   4.000000E-01   4.000000E-01   4.000000E-01   4.000000E-01   4.000000E-01   4.000000E-01   4.000000E-01   4.000000E-01   4.000000E-01   4.000000E-01   4.000000E-01   4.000000E-01   4.000000E-01   4.000000E-01   4.000000E-01   4.000000E-01   4.000000E-01   4.000000E-01   4.000000E-01   4.000000E-01   4.000000E-01   4.000000E-01   4.000000E-01   4.000000E-01   4.000000E-01   4.000000E-01   4.000000E-01   4.000000E-01   4.000000E-01   4.000000E-01   4.000000E-01   4.000000E-01   4.000000E-01   4.000000E-01   4.000000E-01   4.000000E-01   4.000000E-01   4.000000E-01   4.000000E-01   4.000000E-01   4.000000E-01   4.000000E-01   4.000000E-01   4.000000E-01   4.000000E-01   4.000000E-01   4.000000E-01   4.000000E-01   4.000000E-01   4.000000E-01   4.000000E-01   4.000000E-01   4.000000E-01   4.000000E-01   4.000000E-01   4.000000E-01   4.000000E-01   4.000000E-01   4.000000E-01   4.000000E-01   4.000000E-01   4.000000E-01   4.000000E-01   4.000000E-01   4.000000E-01   4.000000E-01   4.000000E-01   4.000000E-01   4.000000E-01   4.000000E-01   4.000000E-01   4.000000E-01   4.000000E-01   4.000000E-01   4.000000E-01   4.000000E-01   4.000000E-01   4.000000E-01   4.000000E-01   4.000000E-01   4.000000E-01   4.000000E-01   4.000000E-01   4.000000E-01   4.000000E-01   4.000000E-01   4.000000E-01   4.000000E-01   4.000000E-01   4.000000E-01   4.000000E-01   4.000000E-01   4.000000E-01   4.000000E-01   4.000000E-01   4.000000E-01   4.000000E-01   4.000000E-01   4.000000E-01   4.000000E-01   4.000000E-01   4.000000E-01   4.000000E-01   4.000000E-01   4.000000E-01   4.000000E-01   4.000000E-01   4.000000E-01   4.000000E-01   4.000000E-01   4.000000E-01   4.000000E-01   4.000000E-01   4.000000E-01   4.000000E-01   4.000000E-01   4.000000E-01   4.000000E-01   4.000000E-01   4.000000E-01   4.000000E-01   4.000000E-01   4.000000E-01   4.000000E-01   4.000000E-01   4.000000E-01   4.000000E-01   4.000000E-01   4.000000E-01   4.000000E-01   4.000000E-01   4.000000E-01   4.000000E-01   4.000000E-01   4.000000E-01   4.000000E-01   4.000000E-01   4.000000E-01   4.000000E-01   4.000000E-01   4.000000E-01   4.000000E-01   4.000000E-01   4.000000E-01   4.000000E-01   4.000000E-01   4.000000E-01   4.000000E-01   4.000000E-01   4.000000E-01   4.000000E-01   4.000000E-01   4.000000E-01   4.000000E-01   4.000000E-01   4.000000E-01   4.000000E-01   4.000000E-01   4.000000E-01   4.000000E-01   4.000000E-01   4.000000E-01   4.000000E-01   4.000000E-01   4.000000E-01   4.000000E-01   4.000000E-01   4.000000E-01   4.000000E-01   4.000000E-01   4.000000E-01   4.000000E-01   4.000000E-01   4.000000E-01   4.000000E-01   4.000000E-01   4.000000E-01   4.000000E-01   4.000000E-01   4.000000E-01   4.000000E-01   4.000000E-01   4.000000E-01   4.000000E-01   4.000000E-01   4.000000E-01   4.000000E-01   4.000000E-01   4.000000E-01   4.000000E-01   4.000000E-01   4.000000E-01   4.000000E-01   4.000000E-01   4.000000E-01   4.000000E-01   4.000000E-01   4.000000E-01   4.000000E-01   4.000000E-01   4.000000E-01   4.000000E-01   4.000000E-01   4.000000E-01   4.000000E-01   4.000000E-01   4.000000E-01   4.000000E-01   4.000000E-01   4.000000E-01   4.000000E-01   4.000000E-01   4.000000E-01   4.000000E-01   4.000000E-01   4.000000E-01   4.000000E-01   4.000000E-01   4.000000E-01   4.000000E-01   4.000000E-01   4.000000E-01   4.000000E-01   4.000000E-01   4.000000E-01   4.000000E-01   4.000000E-01   4.000000E-01   4.000000E-01   4.000000E-01   4.000000E-01   4.000000E-01   4.000000E-01   4.000000E-01   4.000000E-01   4.000000E-01   4.000000E-01   4.000000E-01   4.000000E-01   4.000000E-01   4.000000E-01   4.000000E-01   4.000000E-01   4.000000E-01   4.000000E-01   4.000000E-01   4.000000E-01   4.000000E-01   4.000000E-01   4.000000E-01   4.000000E-01   4.000000E-01   4.000000E-01   4.000000E-01   4.000000E-01   4.000000E-01   4.000000E-01   4.000000E-01   4.000000E-01   4.000000E-01   4.000000E-01   4.000000E-01   4.000000E-01   4.000000E-01   4.000000E-01   4.000000E-01   4.000000E-01   4.000000E-01   4.000000E-01   4.000000E-01   4.000000E-01   4.000000E-01   4.000000E-01   4.000000E-01   4.000000E-01   4.000000E-01   4.000000E-01   4.000000E-01   4.000000E-01   4.000000E-01   4.000000E-01   4.000000E-01   4.000000E-01   4.000000E-01   4.000000E-01   4.000000E-01   4.000000E-01   4.000000E-01   4.000000E-01   4.000000E-01   4.000000E-01   4.000000E-01   4.000000E-01   4.000000E-01   4.000000E-01   4.000000E-01   4.000000E-01   4.000000E-01   4.000000E-01   4.000000E-01   4.000000E-01   4.000000E-01   4.000000E-01   4.000000E-01   4.000000E-01   4.000000E-01   4.000000E-01   4.000000E-01   4.000000E-01   4.000000E-01   4.000000E-01   4.000000E-01   4.000000E-01   4.000000E-01   4.000000E-01   4.000000E-01   4.000000E-01   4.000000E-01   4.000000E-01   4.000000E-01   4.000000E-01   4.000000E-01   4.000000E-01   4.000000E-01   4.000000E-01   4.000000E-01   4.000000E-01   4.000000E-01   4.000000E-01   4.000000E-01   4.000000E-01   4.000000E-01   4.000000E-01   4.000000E-01   4.000000E-01   4.000000E-01   4.000000E-01   4.000000E-01   4.000000E-01   4.000000E-01   4.000000E-01   4.000000E-01   4.000000E-01   4.000000E-01   4.000000E-01   4.000000E-01   4.000000E-01   4.000000E-01   4.000000E-01   4.000000E-01   4.000000E-01   4.000000E-01   4.000000E-01   4.000000E-01   4.000000E-01   4.000000E-01   4.000000E-01   4.000000E-01   4.000000E-01   4.000000E-01   4.000000E-01   4.000000E-01   4.000000E-01   4.000000E-01   4.000000E-01   4.000000E-01   4.000000E-01   4.000000E-01   4.000000E-01   4.000000E-01   4.000000E-01   4.000000E-01   4.000000E-01   4.000000E-01   4.000000E-01   4.000000E-01   4.000000E-01   4.000000E-01   4.000000E-01   4.000000E-01   4.000000E-01   4.000000E-01   4.000000E-01   4.000000E-01   4.000000E-01   4.000000E-01   4.000000E-01   4.000000E-01   4.000000E-01   4.000000E-01   4.000000E-01   