<?xml version="1.0"?>
<!-- Time =  1.0024429269476759E-01s -->
<VTKFile type="PolyData" version="0.1" byte_order="LittleEndian">
<PolyData>
<Piece NumberOfPoints="0000028800" NumberOfVerts="0" NumberOfLines="0" NumberOfStrips="0" NumberOfPolys="0">
<Points>
<DataArray type="Float32" Name="Position" NumberOfComponents="3" format="ascii">
  6.918764E-01   1.966908E-01   5.561734E-01   1.064587E+00   1.950852E-01   4.134312E-01   1.407753E+00   2.004646E-01   2.085506E-01   2.214729E+00   1.995437E-01   2.055899E-01   2.533514E+00   2.184020E-01   5.620217E-01   3.156781E+00   2.002968E-01   6.254155E-01   3.544063E+00   2.013177E-01   4.943338E-01   3.873055E+00   1.982944E-01   8.197021E-01   4.273108E+00   2.308252E-01   3.307877E-01   4.850294E+00   2.034726E-01   9.574301E-01   5.253846E+00   2.120046E-01   5.500818E-01   6.670472E+00   5.094330E-01   9.499512E-01   6.745913E+00   2.995707E-01   2.655502E-01   7.114877E+00   1.969684E+00   1.637511E+00   6.877846E+00   7.186236E-01   4.420384E-01   7.133817E+00   2.366423E+00   2.530795E+00   7.489723E+00   1.023614E+00   5.768291E-01   7.801075E+00   2.081398E+00   1.587375E+00   8.046062E+00   3.852115E-01   4.275818E-01   8.866131E+00   2.056397E-01   8.347278E-01   9.373896E+00   1.946063E-01   6.679510E-01   9.786777E+00   1.962498E-01   7.781458E-01   1.074773E+01   1.993486E-01   2.013349E-01   1.110333E+01   1.978571E-01   5.441687E-01   1.173101E+01   1.988367E-01   7.657652E-01   1.212873E+01   1.978683E-01   8.267242E-01   1.284656E+01   2.050643E-01   5.360433E-01   1.319324E+01   1.929653E-01   2.101579E-01   1.340500E+01   2.174184E-01   5.670364E-01   1.387832E+01   1.963115E-01   3.749055E-01   1.422908E+01   1.960102E-01   7.134688E-01   1.985802E-01   1.989431E-01   8.579705E-01   9.960803E-01   2.889096E-01   7.946566E-01   1.515356E+00   2.003985E-01   1.024749E+00   1.812145E+00   1.990075E-01   6.612330E-01   2.153275E+00   1.958983E-01   8.720722E-01   2.540363E+00   2.037818E-01   9.655862E-01   3.273276E+00   1.966481E-01   1.984085E-01   3.473544E+00   2.041254E-01   8.937576E-01   3.847353E+00   2.069260E-01   2.046082E-01   4.449852E+00   2.014789E-01   1.147319E+00   4.659184E+00   1.966421E-01   1.997832E-01   6.101523E+00   2.008024E-01   2.315099E-01   6.871672E+00   9.946201E-01   1.117825E+00   6.385486E+00   4.807785E-01   2.145364E-01   6.433947E+00   3.610543E+00   2.385591E+00   7.115609E+00   2.430331E+00   1.610076E+00   7.475920E+00   2.592177E+00   1.854674E+00   6.624103E+00   2.495825E+00   2.253641E+00   7.874885E+00   7.680119E-01   3.028470E-01   8.309118E+00   2.211154E-01   7.608743E-01   8.931381E+00   2.053365E-01   2.877937E-01   9.909129E+00   1.952386E-01   3.904811E-01   1.021835E+01   1.961309E-01   6.416002E-01   1.109156E+01   4.037037E-01   1.999661E-01   1.131427E+01   1.985333E-01   8.849795E-01   1.196742E+01   1.990824E-01   1.980186E-01   1.255847E+01   1.978467E-01   8.203761E-01   1.307235E+01   2.281434E-01   8.665110E-01   1.346014E+01   2.025851E-01   9.789707E-01   1.383577E+01   2.015727E-01   7.722835E-01   1.413270E+01   5.474548E-01   5.632635E-01   1.480212E+01   1.985974E-01   7.271463E-01   3.540730E-01   4.035887E-01   5.547990E-01   1.387607E+00   2.124522E-01   6.474693E-01   1.617058E+00   5.051799E-01   4.992372E-01   1.812886E+00   1.976631E-01   2.032040E-01   2.153529E+00   4.116239E-01   5.386373E-01   2.889550E+00   2.136893E-01   3.138810E-01   3.548810E+00   4.800005E-01   1.993700E-01   4.283337E+00   1.976581E-01   7.546070E-01   4.646484E+00   2.456821E-01   5.944083E-01   5.185216E+00   4.724636E-01   8.464396E-01   5.688809E+00   1.944095E-01   2.211540E-01   6.158637E+00   2.413660E-01   7.787148E-01   5.891969E+00   4.091775E-01   5.264266E-01   6.699272E+00   1.369947E+00   9.047158E-01   6.576090E+00   9.508970E-01   2.063451E-01   7.245802E+00   1.531455E+00   9.627576E-01   7.852602E+00   1.355711E+00   5.724890E-01   8.035183E+00   9.735743E-01   8.279533E-01   8.381679E+00   4.577292E-01   2.213359E-01   8.626318E+00   3.850035E-01   5.429062E-01   9.538361E+00   2.011170E-01   2.028154E-01   9.573240E+00   4.363616E-01   1.018618E+00   1.027455E+01   1.950730E-01   2.294952E-01   1.076781E+01   4.133466E-01   5.488264E-01   1.142980E+01   1.985848E-01   1.979397E-01   1.228009E+01   1.952749E-01   4.549173E-01   1.255072E+01   4.742930E-01   5.363505E-01   1.304691E+01   5.613053E-01   2.003426E-01   1.333849E+01   6.036031E-01   4.754449E-01   1.356042E+01   3.696822E-01   2.086163E-01   1.451884E+01   4.188127E-01   5.254748E-01   1.968485E-01   4.659787E-01   1.957605E-01   5.652982E-01   3.173593E-01   1.987951E-01   1.305764E+00   6.296514E-01   2.010643E-01   1.671443E+00   7.818091E-01   1.978774E-01   2.010293E+00   5.665670E-01   2.012295E-01   2.557648E+00   4.101369E-01   1.965993E-01   3.109284E+00   5.517097E-01   2.876804E-01   3.723614E+00   5.037417E-01   1.037156E+00   3.971447E+00   6.284342E-01   2.073961E-01   4.750951E+00   4.033870E-01   1.314300E+00   5.047580E+00   2.825968E-01   1.999840E-01   5.780001E+00   5.308026E-01   9.315693E-01   6.430262E+00   7.619278E-01   1.162550E+00   6.129891E+00   7.482024E-01   3.589134E-01   6.656240E+00   2.841099E+00   1.474086E+00   6.939384E+00   1.140043E+00   2.028111E-01   7.658887E+00   1.235052E+00   2.427139E-01   7.876467E+00   1.976343E+00   2.187714E+00   8.430716E+00   8.690878E-01   2.306437E-01   8.364977E+00   8.198366E-01   1.130165E+00   9.160986E+00   4.284587E-01   9.845403E-01   9.637119E+00   4.870305E-01   5.510764E-01   9.994119E+00   4.298739E-01   1.024383E+00   1.040284E+01   5.539076E-01   6.546810E-01   1.101867E+01   5.577391E-01   1.200615E+00   1.184051E+01   4.540992E-01   4.799362E-01   1.222828E+01   4.985815E-01   2.002004E-01   1.267430E+01   3.092050E-01   1.962389E-01   1.331314E+01   9.017338E-01   2.023481E-01   1.370534E+01   8.298573E-01   2.254678E-01   1.427126E+01   2.009958E-01   2.637679E-01   1.479528E+01   2.029022E-01   2.373564E-01   8.095078E-01   5.885226E-01   5.702305E-01   9.272331E-01   4.952831E-01   1.980739E-01   1.457788E+00   8.687876E-01   5.330547E-01   1.931077E+00   7.508475E-01   5.503545E-01   2.497318E+00   6.140090E-01   5.401899E-01   2.875164E+00   4.900784E-01   6.094100E-01   3.646812E+00   5.565656E-01   6.475716E-01   4.037738E+00   4.539319E-01   5.646537E-01   4.665502E+00   5.949736E-01   2.042112E-01   5.457581E+00   6.496206E-01   6.153690E-01   5.429966E+00   5.094391E-01   2.122890E-01   5.937876E+00   8.129562E-01   1.185096E+00   6.442514E+00   6.506627E-01   5.931395E-01   6.390378E+00   1.416599E+00   1.165706E+00   6.384691E+00   1.910309E+00   1.374275E+00   7.034374E+00   2.775804E+00   2.062235E+00   8.037021E+00   2.362578E+00   1.391218E+00   8.498928E+00   1.241849E+00   1.168374E+00   8.275597E+00   6.501417E-01   6.119825E-01   8.874440E+00   7.133626E-01   1.007877E+00   9.008066E+00   5.064480E-01   5.846058E-01   9.842320E+00   7.297744E-01   7.942079E-01   9.884806E+00   5.421168E-01   1.968038E-01   1.068315E+01   5.624408E-01   9.400439E-01   1.145227E+01   3.839462E-01   5.508924E-01   1.218163E+01   5.931165E-01   6.426579E-01   1.249058E+01   8.337727E-01   6.966473E-01   1.293668E+01   6.073894E-01   5.812551E-01   1.358570E+01   8.789346E-01   6.925851E-01   1.398561E+01   5.352921E-01   1.966176E-01   1.437760E+01   5.983697E-01   2.002984E-01   1.992239E-01   7.267348E-01   7.323232E-01   5.801148E-01   9.258462E-01   6.389992E-01   1.205580E+00   5.644727E-01   5.878026E-01   1.732620E+00   9.970755E-01   7.982323E-01   2.153510E+00   8.617032E-01   8.751081E-01   2.756284E+00   8.665820E-01   7.160973E-01   3.236948E+00   6.893289E-01   6.687552E-01   3.771151E+00   8.803000E-01   8.600581E-01   4.320929E+00   6.767118E-01   3.964844E-01   4.888944E+00   5.673357E-01   5.923654E-01   5.061381E+00   6.789736E-01   2.010808E-01   5.831327E+00   8.091047E-01   6.312149E-01   6.144012E+00   9.457542E-01   8.504902E-01   6.447706E+00   1.107133E+00   5.796807E-01   6.986208E+00   3.796844E+00   1.583207E+00   7.147255E+00   1.454304E+00   5.794446E-01   7.914937E+00   1.536148E+00   1.989273E-01   7.728440E+00   3.196450E+00   1.695881E+00   8.398677E+00   1.098682E+00   6.518293E-01   8.662347E+00   7.756506E-01   6.716630E-01   8.814523E+00   5.808780E-01   2.035357E-01   9.480936E+00   5.976751E-01   1.995029E-01   1.011107E+01   7.541598E-01   4.493927E-01   1.077205E+01   6.391679E-01   2.173200E-01   1.106664E+01   5.030808E-01   8.086115E-01   1.152759E+01   5.849133E-01   2.011262E-01   1.213378E+01   9.293405E-01   8.558600E-01   1.284194E+01   1.042928E+00   7.140808E-01   1.321323E+01   9.396690E-01   8.216076E-01   1.438022E+01   8.519529E-01   5.066444E-01   1.445102E+01   7.802004E-01   1.006622E+00   1.480520E+01   9.858657E-01   5.817890E-01   4.848281E-01   7.236726E-01   3.003589E-01   8.362076E-01   8.814136E-01   1.974350E-01   1.069911E+00   9.601226E-01   5.064555E-01   1.891591E+00   1.087958E+00   3.227866E-01   2.303854E+00   8.422151E-01   2.206448E-01   2.735114E+00   7.733733E-01   2.228075E-01   3.526613E+00   9.024311E-01   2.047601E-01   4.190648E+00   8.564376E-01   7.312819E-01   4.732685E+00   9.030809E-01   4.469429E-01   5.152078E+00   8.683537E-01   7.728993E-01   5.372105E+00   9.242547E-01   2.581833E-01   5.772389E+00   8.843828E-01   2.440619E-01   6.205846E+00   1.124424E+00   2.260155E-01   6.030197E+00   1.633424E+00   1.167703E+00   6.725528E+00   1.413339E+00   5.036571E-01   7.412343E+00   1.545758E+00   2.116468E-01   8.188107E+00   1.251212E+00   2.687433E-01   8.159039E+00   1.447954E+00   9.682829E-01   8.829576E+00   9.917111E-01   2.000943E-01   9.051791E+00   9.012493E-01   6.880842E-01   9.154152E+00   7.899517E-01   3.161582E-01   9.937736E+00   1.088824E+00   6.309716E-01   1.037541E+01   5.913117E-01   2.022114E-01   1.092265E+01   8.730863E-01   7.758535E-01   1.119267E+01   6.779099E-01   4.750104E-01   1.190150E+01   7.264809E-01  
[...]
<PointData Scalars="Diameter" Vectors="Velocity">
<DataArray type="Float32" Name="Diameter" format="ascii">
  4.000000E-01   4.000000E-01   4.000000E-01   4.000000E-01   4.000000E-01   4.000000E-01   4.000000E-01   4.000000E-01   4.000000E-01   4.000000E-01   4.000000E-01   4.000000E-01   4.000000E-01   4.000000E-01   4.000000E-01   4.000000E-01   4.000000E-01   4.000000E-01   4.000000E-01   4.000000E-01   4.000000E-01   4.000000E-01   4.000000E-01   4.000000E-01   4.000000E-01   4.000000E-01   4.000000E-01   4.000000E-01   4.000000E-01   4.000000E-01   4.000000E-01   4.000000E-01   4.000000E-01   4.000000E-01   4.000000E-01   4.000000E-01   4.000000E-01   4.000000E-01   4.000000E-01   4.000000E-01   4.000000E-01   4.000000E-01   4.000000E-01   4.000000E-01   4.000000E-01   4.000000E-01   4.000000E-01   4.000000E-01   4.000000E-01   4.000000E-01   4.000000E-01   4.000000E-01   4.000000E-01   4.000000E-01   4.000000E-01   4.000000E-01   4.000000E-01   4.000000E-01   4.000000E-01   4.000000E-01   4.000000E-01   4.000000E-01   4.000000E-01   4.000000E-01   4.000000E-01   4.000000E-01   4.000000E-01   4.000000E-01   4.000000E-01   4.000000E-01   4.000000E-01   4.000000E-01   4.000000E-01   4.000000E-01   4.000000E-01   4.000000E-01   4.000000E-01   4.000000E-01   4.000000E-01   4.000000E-01   4.000000E-01   4.000000E-01   4.000000E-01   4.000000E-01   4.000000E-01   4.000000E-01   4.000000E-01   4.000000E-01   4.000000E-01   4.000000E-01   4.000000E-01   4.000000E-01   4.000000E-01   4.000000E-01   4.000000E-01   4.000000E-01   4.000000E-01   4.000000E-01   4.000000E-01   4.000000E-01   4.000000E-01   4.000000E-01   4.000000E-01   4.000000E-01   4.000000E-01   4.000000E-01   4.000000E-01   4.000000E-01   4.000000E-01   4.000000E-01   4.000000E-01   4.000000E-01   4.000000E-01   4.000000E-01   4.000000E-01   4.000000E-01   4.000000E-01   4.000000E-01   4.000000E-01   4.000000E-01   4.000000E-01   4.000000E-01   4.000000E-01   4.000000E-01   4.000000E-01   4.000000E-01   4.000000E-01   4.000000E-01   4.000000E-01   4.000000E-01   4.000000E-01   4.000000E-01   4.000000E-01   4.000000E-01   4.000000E-01   4.000000E-01   4.000000E-01   4.000000E-01   4.000000E-01   4.000000E-01   4.000000E-01   4.000000E-01   4.000000E-01   4.000000E-01   4.000000E-01   4.000000E-01   4.000000E-01   4.000000E-01   4.000000E-01   4.000000E-01   4.000000E-01   4.000000E-01   4.000000E-01   4.000000E-01   4.000000E-01   4.000000E-01   4.000000E-01   4.000000E-01   4.000000E-01   4.000000E-01   4.000000E-01   4.000000E-01   4.000000E-01   4.000000E-01   4.000000E-01   4.000000E-01   4.000000E-01   4.000000E-01   4.000000E-01   4.000000E-01   4.000000E-01   4.000000E-01   4.000000E-01   4.000000E-01   4.000000E-01   4.000000E-01   4.000000E-01   4.000000E-01   4.000000E-01   4.000000E-01   4.000000E-01   4.000000E-01   4.000000E-01   4.000000E-01   4.000000E-01   4.000000E-01   4.000000E-01   4.000000E-01   4.000000E-01   4.000000E-01   4.000000E-01   4.000000E-01   4.000000E-01   4.000000E-01   4.000000E-01   4.000000E-01   4.000000E-01   4.000000E-01   4.000000E-01   4.000000E-01   4.000000E-01   4.000000E-01   4.000000E-01   4.000000E-01   4.000000E-01   4.000000E-01   4.000000E-01   4.000000E-01   4.000000E-01   4.000000E-01   4.000000E-01   4.000000E-01   4.000000E-01   4.000000E-01   4.000000E-01   4.000000E-01   4.000000E-01   4.000000E-01   4.000000E-01   4.000000E-01   4.000000E-01   4.000000E-01   4.000000E-01   4.000000E-01   4.000000E-01   4.000000E-01   4.000000E-01   4.000000E-01   4.000000E-01   4.000000E-01   4.000000E-01   4.000000E-01   4.000000E-01   4.000000E-01   4.000000E-01   4.000000E-01   4.000000E-01   4.000000E-01   4.000000E-01   4.000000E-01   4.000000E-01   4.000000E-01   4.000000E-01   4.000000E-01   4.000000E-01   4.000000E-01   4.000000E-01   4.000000E-01   4.000000E-01   4.000000E-01   4.000000E-01   4.000000E-01   4.000000E-01   4.000000E-01   4.000000E-01   4.000000E-01   4.000000E-01   4.000000E-01   4.000000E-01   4.000000E-01   4.000000E-01   4.000000E-01   4.000000E-01   4.000000E-01   4.000000E-01   4.000000E-01   4.000000E-01   4.000000E-01   4.000000E-01   4.000000E-01   4.000000E-01   4.000000E-01   4.000000E-01   4.000000E-01   4.000000E-01   4.000000E-01   4.000000E-01   4.000000E-01   4.000000E-01   4.000000E-01   4.000000E-01   4.000000E-01   4.000000E-01   4.000000E-01   4.000000E-01   4.000000E-01   4.000000E-01   4.000000E-01   4.000000E-01   4.000000E-01   4.000000E-01   4.000000E-01   4.000000E-01   4.000000E-01   4.000000E-01   4.000000E-01   4.000000E-01   4.000000E-01   4.000000E-01   4.000000E-01   4.000000E-01   4.000000E-01   4.000000E-01   4.000000E-01   4.000000E-01   4.000000E-01   4.000000E-01   4.000000E-01   4.000000E-01   4.000000E-01   4.000000E-01   4.000000E-01   4.000000E-01   4.000000E-01   4.000000E-01   4.000000E-01   4.000000E-01   4.000000E-01   4.000000E-01   4.000000E-01   4.000000E-01   4.000000E-01   4.000000E-01   4.000000E-01   4.000000E-01   4.000000E-01   4.000000E-01   4.000000E-01   4.000000E-01   4.000000E-01   4.000000E-01   4.000000E-01   4.000000E-01   4.000000E-01   4.000000E-01   4.000000E-01   4.000000E-01   4.000000E-01   4.000000E-01   4.000000E-01   4.000000E-01   4.000000E-01   4.000000E-01   4.000000E-01   4.000000E-01   4.000000E-01   4.000000E-01   4.000000E-01   4.000000E-01   4.000000E-01   4.000000E-01   4.000000E-01   4.000000E-01   4.000000E-01   4.000000E-01   4.000000E-01   4.000000E-01   4.000000E-01   4.000000E-01   4.000000E-01   4.000000E-01   4.000000E-01   4.000000E-01   4.000000E-01   4.000000E-01   4.000000E-01   4.000000E-01   4.000000E-01   4.000000E-01   4.000000E-01   4.000000E-01   4.000000E-01   4.000000E-01   4.000000E-01   4.000000E-01   4.000000E-01   4.000000E-01   4.000000E-01   4.000000E-01   4.000000E-01   4.000000E-01   4.000000E-01   4.000000E-01   4.000000E-01   4.000000E-01   4.000000E-01   4.000000E-01   4.000000E-01   4.000000E-01   4.000000E-01   4.000000E-01   4.000000E-01   4.000000E-01   4.000000E-01   4.000000E-01   4.000000E-01   4.000000E-01   4.000000E-01   4.000000E-01   4.000000E-01   4.000000E-01   4.000000E-01   4.000000E-01   4.000000E-01   4.000000E-01   4.000000E-01   4.000000E-01   4.000000E-01   4.000000E-01   4.000000E-01   4.000000E-01   4.000000E-01   4.000000E-01   4.000000E-01   4.000000E-01   4.000000E-01   4.000000E-01   4.000000E-01   4.000000E-01   4.000000E-01   4.000000E-01   4.000000E-01   4.000000E-01   4.000000E-01   4.000000E-01   4.000000E-01   4.000000E-01   4.000000E-01   4.000000E-01   4.000000E-01   4.000000E-01   4.000000E-01   4.000000E-01   4.000000E-01   4.000000E-01   4.000000E-01   4.000000E-01   4.000000E-01   4.000000E-01   4.000000E-01   4.000000E-01   4.000000E-01   4.000000E-01   4.000000E-01   4.000000E-01   4.000000E-01   4.000000E-01   4.000000E-01   4.000000E-01   4.000000E-01   4.000000E-01   4.000000E-01   4.000000E-01   4.000000E-01   4.000000E-01   4.000000E-01   4.000000E-01   4.000000E-01   4.000000E-01   4.000000E-01   4.000000E-01   4.000000E-01   4.000000E-01   4.000000E-01   4.000000E-01   4.000000E-01   4.000000E-01   4.000000E-01   4.000000E-01   4.000000E-01   4.000000E-01   4.000000E-01   4.000000E-01   4.000000E-01   4.000000E-01   4.000000E-01   4.000000E-01   4.000000E-01   4.000000E-01   4.000000E-01   4.000000E-01   4.000000E-01   4.000000E-01   4.000000E-01   4.000000E-01   4.000000E-01   4.000000E-01   4.000000E-01   4.000000E-01   4.000000E-01   4.000000E-01   4.000000E-01   4.000000E-01   4.000000E-01   4.000000E-01   4.000000E-01   4.000000E-01   4.000000E-01   4.000000E-01   4.000000E-01   4.000000E-01   4.000000E-01   4.000000E-01   4.000000E-01   4.000000E-01   4.000000E-01   4.000000E-01   4.000000E-01   4.000000E-01   4.000000E-01   4.000000E-01   4.000000E-01   4.000000E-01   4.000000E-01   4.000000E-01   4.000000E-01   4.000000E-01   4.000000E-01   4.000000E-01   4.000000E-01   4.000000E-01   4.000000E-01   4.000000E-01   4.000000E-01   4.000000E-01   4.000000E-01   4.000000E-01   4.000000E-01   4.000000E-01   4.000000E-01   4.000000E-01   4.000000E-01   4.000000E-01   4.000000E-01   4.000000E-01   4.000000E-01   4.000000E-01   4.000000E-01   4.000000E-01   4.000000E-01   4.000000E-01   4.000000E-01   4.000000E-01   4.000000E-01   4.000000E-01   4.000000E-01   4.000000E-01   4.000000E-01   4.000000E-01   4.000000E-01   4.000000E-01   4.000000E-01   4.000000E-01   4.000000E-01   4.000000E-01   4.000000E-01   4.000000E-01   4.000000E-01   4.000000E-01   4.000000E-01   4.000000E-01   4.000000E-01   4.000000E-01   4.000000E-01   4.000000E-01   4.000000E-01   4.000000E-01   4.000000E-01   4.000000E-01   4.000000E-01   4.000000E-01   4.000000E-01   4.000000E-01   4.000000E-01   4.000000E-01   4.000000E-01   4.000000E-01   4.000000E-01   4.000000E-01   4.000000E-01   4.000000E-01   4.000000E-01   4.000000E-01   4.000000E-01   4.000000E-01   4.000000E-01   4.000000E-01   4.000000E-01   4.000000E-01   4.000000E-01   4.000000E-01   4.000000E-01   4.000000E-01   4.000000E-01   4.000000E-01   4.000000E-01   4.000000E-01   4.000000E-01   4.000000E-01   4.000000E-01   4.000000E-01   4.000000E-01   4.000000E-01   4.000000E-01   4.000000E-01   4.000000E-01   4.000000E-01   4.000000E-01   4.000000E-01   4.000000E-01   4.000000E-01   4.000000E-01   4.000000E-01   4.000000E-01   4.000000E-01   4.000000E-01   4.000000E-01   4.000000E-01   4.000000E-01   4.000000E-01   4.000000E-01   4.000000E-01   4.000000E-01   4.000000E-01   4.000000E-01   4.000000E-01   4.000000E-01   4.000000E-01   4.000000E-01   4.000000E-01   4.000000E-01   4.000000E-01   4.000000E-01   4.000000E-01   4.000000E-01   4.000000E-01   4.000000E-01   4.000000E-01   4.000000E-01   4.000000E-01   4.000000E-01   4.000000E-01   4.000000E-01   4.000000E-01   4.000000E-01   4.000000E-01   4.000000E-01   4.000000E-01   4.000000E-01   4.000000E-01   4.000000E-01   4.000000E-01   4.000000E-01   4.000000E-01   4.000000E-01   4.000000E-01   4.000000E-01   4.000000E-01   4.000000E-01   4.000000E-01   4.000000E-01   4.000000E-01   4.000000E-01   4.000000E-01   4.000000E-01   4.000000E-01   4.000000E-01   4.000000E-01   4.000000E-01   4.000000E-01   4.000000E-01   4.000000E-01   4.000000E-01   4.000000E-01   4.000000E-01   4.000000E-01   4.000000E-01   4.000000E-01   4.000000E-01   4.000000E-01   4.000000E-01   4.000000E-01   4.000000E-01   4.000000E-01   4.000000E-01   4.000000E-01   4.000000E-01   4.000000E-01   4.000000E-01   4.000000E-01   4.000000E-01   4.000000E-01   4.000000E-01   4.000000E-01   4.000000E-01   4.000000E-01   4.000000E-01   4.000000E-01   4.000000E-01   4.000000E-01   4.000000E-01   4.000000E-01   4.000000E-01   4.000000E-01   4.000000E-01   4.000000E-01   4.000000E-01   4.000000E-01   4.000000E-01   4.000000E-01   4.000000E-01   4.000000E-01   4.000000E-01   4.000000E-01   4.000000E-01   4.000000E-01   4.000000E-01   4.000000E-01   4.000000E-01   4.000000E-01   4.000000E-01   4.000000E-01   4.000000E-01   4.000000E-01   4.000000E-01   4.000000E-01   4.000000E-01   4.000000E-01   4.000000E-01   4.000000E-01   4.000000E-01   4.000000E-01   4.000000E-01   4.000000E-01   4.000000E-01   4.000000E-01   4.000000E-01   4.000000E-01   4.000000E-01   4.000000E-01   4.000000E-01   4.000000E-01   4.000000E-01   4.000000E-01   4.000000E-01   4.000000E-01   4.000000E-01   4.000000E-01   4.000000E-01   4.000000E-01   4.000000E-01   4.000000E-01   4.000000E-01   4.000000E-01   4.000000E-01   4.000000E-01   4.000000E-01   4.000000E-01   4.000000E-01   4.000000E-01   4.000000E-01   4.000000E-01   4.000000E-01   4.000000E-01   4.000000E-01   4.000000E-01   4.000000E-01   4.000000E-01   4.000000E-01   4.000000E-01   4.000000E-01   4.000000E-01   4.000000E-01   4.000000E-01   4.000000E-01   4.000000E-01   4.000000E-01   4.000000E-01   4.000000E-01   4.000000E-01   4.000000E-01   4.000000E-01   4.000000E-01   4.000000E-01   4.000000E-01   4.000000E-01   4.000000E-01   4.000000E-01   4.000000E-01   4.000000E-01   4.000000E-01   4.000000E-01   4.000000E-01   4.000000E-01   4.000000E-01   4.000000E-01   4.000000E-01   4.000000E-01   4.000000E-01   4.000000E-01   4.000000E-01   4.000000E-01   4.000000E-01   4.000000E-01   4.000000E-01   4.000000E-01   4.000000E-01   4.000000E-01   4.000000E-01   4.000000E-01   4.000000E-01   4.000000E-01   4.000000E-01   4.000000E-01   4.000000E-01   4.000000E-01   4.000000E-01   4.000000E-01   4.000000E-01   4.000000E-01   4.000000E-01   4.000000E-01   4.000000E-01   4.000000E-01   4.000000E-01   4.000000E-01   4.000000E-01   4.000000E-01   4.000000E-01   4.000000E-01   4.000000E-01   4.000000E-01   4.000000E-01   4.000000E-01   4.000000E-01   4.000000E-01   4.000000E-01   4.000000E-01   4.000000E-01   4.000000E-01   4.000000E-01   4.000000E-01   4.000000E-01   4.000000E-01   4.000000E-01   4.000000E-01   4.000000E-01   4.000000E-01   4.000000E-01   4.000000E-01   4.000000E-01   4.000000E-01   4.000000E-01   4.000000E-01   4.000000E-01   4.000000E-01   4.000000E-01   4.000000E-01   4.000000E-01   4.000000E-01   4.000000E-01   4.000000E-01   4.000000E-01   4.000000E-01   4.000000E-01   4.000000E-01   4.000000E-01   4.000000E-01   4.000000E-01   4.000000E-01   4.000000E-01   4.000000E-01   4.000000E-01   4.000000E-01   4.000000E-01   4.000000E-01   4.000000E-01   4.000000E-01   4.000000E-01   4.000000E-01   4.000000E-01   4.000000E-01   4.000000E-01   4.000000E-01   4.000000E-01   4.000000E-01   4.000000E-01   4.000000E-01   4.000000E-01   4.000000E-01   4.000000E-01   4.000000E-01   4.000000E-01   4.000000E-01   4.000000E-01   4.000000E-01   4.000000E-01   4.000000E-01   4.000000E-01   4.000000E-01   4.000000E-01   4.000000E-01   4.000000E-01   4.000000E-01   4.000000E-01   4.000000E-01   4.000000E-01   4.000000E-01   4.000000E-01   4.000000E-01   4.000000E-01   4.000000E-01   4.000000E-01   4.000000E-01   4.000000E-01   4.000000E-01   4.000000E-01   4.000000E-01   4.000000E-01   4.000000E-01   4.000000E-01   4.000000E-01   4.000000E-01   4.000000E-01   4.000000E-01   4.000000E-01   4.000000E-01   4.000000E-01   4.000000E-01   4.000000E-01   4.000000E-01   4.000000E-01   4.000000E-01   4.000000E-01   4.000000E-01   4.000000E-01   4.000000E-01   4.000000E-01   4.000000E-01   4.000000E-01   4.000000E-01   4.000000E-01   4.000000E-01   4.000000E-01   4.000000E-01   4.000000E-01   4.000000E-01   4.000000E-01   4.000000E-01   4.000000E-01   4.000000E-01   4.000000E-01   4.000000E-01   4.000000E-01   4.000000E-01   4.000000E-01   4.000000E-01   4.000000E-01   4.000000E-01   4.000000E-01   4.000000E-01   4.000000E-01   4.000000E-01   4.000000E-01   4.000000E-01   4.000000E-01   4.000000E-01   4.000000E-01   4.000000E-01   4.000000E-01   4.000000E-01   4.000000E-01   4.000000E-01   4.000000E-01   4.000000E-01   4.000000E-01   4.000000E-01   4.000000E-01   4.000000E-01   4.000000E-01   4.000000E-01   4.000000E-01   4.000000E-01   4.000000E-01   4.000000E-01   4.000000E-01   4.000000E-01   4.000000E-01   4.000000E-01   4.000000E-01   4.000000E-01   4.000000E-01   4.000000E-01   4.000000E-01   4.000000E-01   4.000000E-01   4.000000E-01   4.000000E-01   4.000000E-01   4.000000E-01   4.000000E-01   4.000000E-01   4.000000E-01   4.000000E-01   4.000000E-01   4.000000E-01   4.000000E-01   4.000000E-01   4.000000E-01   4.000000E-01   4.000000E-01   4.000000E-01   4.000000E-01   4.000000E-01   4.000000E-01   4.000000E-01   4.000000E-01   4.000000E-01   4.000000E-01   4.000000E-01   4.000000E-01   4.000000E-01   4.000000E-01   4.000000E-01   4.000000E-01   4.000000E-01   4.000000E-01   4.000000E-01   4.000000E-01   4.000000E-01   4.000000E-01   4.000000E-01   4.000000E-01   4.000000E-01   4.000000E-01   4.000000E-01   4.000000E-01   4.000000E-01   4.000000E-01   4.000000E-01   4.000000E-01   4.000000E-01   4.000000E-01   4.000000E-01   4.000000E-01   4.000000E-01   4.000000E-01   4.000000E-01   4.000000E-01   4.000000E-01   4.000000E-01   4.000000E-01   4.000000E-01   4.000000E-01   4.000000E-01   4.000000E-01   4.000000E-01   4.000000E-01   4.000000E-01   4.000000E-01   4.000000E-01   4.000000E-01   4.000000E-01   4.000000E-01   4.000000E-01   4.000000E-01   4.000000E-01   4.000000E-01   4.000000E-01   4.000000E-01   4.000000E-01   4.000000E-01   4.000000E-01   4.000000E-01   4.000000E-01   4.000000E-01   4.000000E-01   4.000000E-01   4.000000E-01   4.000000E-01   4.000000E-01   4.000000E-01   4.000000E-01   4.000000E-01   4.000000E-01   4.000000E-01   4.000000E-01   4.000000E-01   4.000000E-01   4.000000E-01   4.000000E-01   4.000000E-01   4.000000E-01   4.000000E-01   4.000000E-01   4.000000E-01   4.000000E-01   4.000000E-01   4.000000E-01   4.000000E-01   4.000000E-01   4.000000E-01   4.000000E-01   4.000000E-01   4.000000E-01   4.000000E-01   4.000000E-01   4.000000E-01   4.000000E-01   4.000000E-01   4.000000E-01   4.000000E-01   4.000000E-01   4.000000E-01   4.000000E-01   4.000000E-01   4.000000E-01   4.000000E-01   4.000000E-01   4.000000E-01   4.000000E-01   4.000000E-01   4.000000E-01   4.000000E-01   4.000000E-01   4.000000E-01   4.000000E-01   4.000000E-01   4.000000E-01   4.000000E-01   4.000000E-01   4.000000E-01   4.000000E-01   4.000000E-01   4.000000E-01   4.000000E-01   4.000000E-01   4.000000E-01   4.000000E-01   4.000000E-01   4.000000E-01   4.000000E-01   4.000000E-01   4.000000E-01   4.000000E-01   4.000000E-01   4.000000E-01   4.000000E-01   4.000000E-01   4.000000E-01   4.000000E-01   4.000000E-01   4.000000E-01   4.000000E-01   4.000000E-01   4.000000E-01   4.000000E-01   4.000000E-01   4.000000E-01   4.000000E-01   4.000000E-01   4.000000E-01   4.000000E-01   4.000000E-01   4.000000E-01   4.000000E-01   4.000000E-01   4.000000E-01   4.000000E-01   4.000000E-01   4.000000E-01   4.000000E-01   4.000000E-01   4.000000E-01   4.000000E-01   4.000000E-01   4.000000E-01   4.000000E-01   4.000000E-01   4.000000E-01   4.000000E-01   4.000000E-01   4.000000E-01   4.000000E-01   4.000000E-01   4.000000E-01   4.000000E-01   4.000000E-01   4.000000E-01   4.000000E-01   4.000000E-01   4.000000E-01   4.000000E-01   4.000000E-01   4.000000E-01   4.000000E-01   4.000000E-01   4.000000E-01   4.000000E-01   4.000000E-01   4.000000E-01   4.000000E-01   4.000000E-01   4.000000E-01   4.000000E-01   4.000000E-01   4.000000E-01   4.000000E-01   4.000000E-01   4.000000E-01   4.000000E-01   4.000000E-01   4.000000E-01   4.000000E-01   4.000000E-01   4.000000E-01   4.000000E-01   4.000000E-01   4.000000E-01   4.000000E-01   4.000000E-01   4.000000E-01   4.000000E-01   4.000000E-01   4.000000E-01   4.000000E-01   4.000000E-01   4.000000E-01   4.000000E-01   4.000000E-01   4.000000E-01   4.000000E-01   4.000000E-01   4.000000E-01   4.000000E-01   4.000000E-01   4.000000E-01   4.000000E-01   4.000000E-01   4.000000E-01   4.000000E-01   4.000000E-01   4.000000E-01   4.000000E-01   4.000000E-01   4.000000E-01   4.000000E-01   4.000000E-01   4.000000E-01   4.000000E-01   4.000000E-01   4.000000E-01   4.000000E-01   4.000000E-01   4.000000E-01   4.000000E-01   4.000000E-01   4.000000E-01   4.000000E-01   4.000000E-01   4.000000E-01   4.000000E-01   4.000000E-01   4.000000E-01   4.000000E-01   4.000000E-01   4.000000E-01   4.000000E-01   4.000000E-01   4.000000E-01   4.000000E-01   4.000000E-01   4.000000E-01   4.000000E-01   4.000000E-01   4.000000E-01   4.000000E-01   4.000000E-01   4.000000E-01   4.000000E-01   4.000000E-01   4.000000E-01   4.000000E-01   4.000000E-01   4.000000E-01   4.000000E-01   4.000000E-01   4.000000E-01   4.000000E-01   4.000000E-01   4.000000E-01   4.000000E-01   4.000000E-01   4.000000E-01   4.000000E-01   4.000000E-01   4.000000E-01   4.000000E-01   4.000000E-01   4.000000E-01   4.000000E-01   4.000000E-01   4.000000E-01   4.000000E-01   4.000000E-01   4.000000E-01   4.000000E-01   4.000000E-01   4.000000E-01   4.000000E-01   4.000000E-01   4.000000E-01   4.000000E-01   4.000000E-01   4.000000E-01   4.000000E-01   4.000000E-01   4.000000E-01   4.000000E-01   4.000000E-01   4.000000E-01   4.000000E-01   4.000000E-01   4.000000E-01   4.000000E-01   4.000000E-01   