<?xml version="1.0"?>
<!-- Time =  8.0063829269476927E-01s -->
<VTKFile type="PolyData" version="0.1" byte_order="LittleEndian">
<PolyData>
<Piece NumberOfPoints="0000028800" NumberOfVerts="0" NumberOfLines="0" NumberOfStrips="0" NumberOfPolys="0">
<Points>
<DataArray type="Float32" Name="Position" NumberOfComponents="3" format="ascii">
  8.216262E-01   1.960970E-01   5.560709E-01   1.337778E+00   1.978828E-01   4.799330E-01   1.926467E+00   1.965986E-01   2.387492E-01   3.583876E+00   1.975114E-01   1.984102E-01   4.106537E+00   1.975988E-01   5.598064E-01   6.394910E+00   2.031262E-01   6.635058E-01   7.130012E+00   1.284167E+01   2.798035E+00   6.620406E+00   1.228060E+01   1.619066E+00   6.531320E+00   1.201593E+01   1.948701E+00   5.933689E-01   8.892161E+00   4.995555E+00   1.394683E+00   7.984861E+00   7.826287E-01   2.017259E-01   1.076124E+01   3.182976E+00   2.573354E+00   9.558784E+00   5.294720E-01   5.451881E-01   1.024190E+01   5.457904E-01   7.158042E-01   9.839219E+00   2.124272E+00   7.334832E+00   1.400408E+01   3.658691E-01   1.409209E+01   8.976825E+00   4.387958E+00   1.377452E+01   9.495738E+00   2.925621E+00   5.330612E-01   8.487731E+00   4.826723E+00   1.368095E+01   7.893716E+00   1.683245E+00   3.094695E+00   8.134312E+00   4.410476E+00   4.344079E+00   1.155792E+01   1.708651E+00   3.403755E+00   1.020803E+01   2.028729E+00   7.844888E+00   1.206572E+01   2.982198E+00   7.843521E+00   2.546211E+00   1.337871E+00   1.166095E+01   1.983602E-01   5.495440E-01   1.255539E+01   1.962512E-01   1.989423E-01   1.276375E+01   1.980320E-01   5.391183E-01   1.350224E+01   1.943302E-01   5.324870E-01   1.398992E+01   1.976711E-01   8.890394E-01   2.233796E-01   1.951269E-01   1.010221E+00   1.153301E+00   1.997255E-01   9.244912E-01   2.379959E+00   1.998266E-01   1.260737E+00   2.702806E+00   1.952637E-01   9.816505E-01   3.309832E+00   1.950905E-01   9.153364E-01   4.391322E+00   1.998160E-01   8.405007E-01   6.869745E+00   3.103270E+00   1.037721E+00   6.745446E+00   3.206976E+00   1.575795E+00   7.428233E+00   1.346081E+01   3.495737E+00   4.903710E+00   9.479863E+00   6.714269E-01   3.828411E+00   1.017806E+01   1.515991E+00   4.760737E-01   7.412854E+00   3.650613E+00   3.795657E-01   9.171150E+00   4.492716E+00   8.323113E-01   1.041326E+01   3.465080E+00   8.216011E+00   1.108788E+01   2.188233E-01   9.564822E-01   1.117323E+01   5.674815E-01   5.443803E-01   9.977751E+00   2.974787E+00   2.520401E+00   1.043494E+01   9.249934E-01   1.374886E+01   8.789946E+00   2.796499E+00   1.468447E+00   9.884784E+00   2.201602E+00   1.369433E+01   7.054684E+00   4.041329E+00   2.927902E+00   7.524897E+00   3.091205E+00   7.653413E+00   1.109670E+01   2.410419E+00   7.904065E+00   1.631028E+01   2.195508E+00   8.795635E+00   1.996031E-01   1.995489E-01   9.519850E+00   1.993193E-01   1.325686E+00   1.151166E+01   1.967511E-01   1.060373E+00   1.289268E+01   1.984644E-01   9.172140E-01   1.328894E+01   1.985976E-01   8.706327E-01   1.387518E+01   3.838276E-01   5.289415E-01   1.466242E+01   1.996963E-01   5.755347E-01   1.987019E-01   1.974284E-01   5.993479E-01   1.955366E+00   1.995273E-01   8.869249E-01   2.283124E+00   1.946090E-01   5.640567E-01   2.653586E+00   1.984992E-01   1.983302E-01   3.079022E+00   1.982925E-01   5.888889E-01   5.412033E+00   1.994038E-01   1.998837E-01   7.230188E+00   1.248987E+01   3.538927E+00   3.906360E+00   9.794039E+00   2.085935E+00   1.999115E-01   8.833295E+00   5.938963E-01   2.341820E+00   8.326797E+00   4.285416E+00   2.746906E+00   7.872670E+00   3.013592E+00   8.607228E-01   8.176763E+00   2.908984E+00   3.006517E+00   7.630246E+00   4.337008E+00   1.289953E+00   1.109509E+01   9.363810E-01   1.276615E+00   7.640503E+00   4.480772E+00   9.602195E-01   8.292473E+00   3.290198E+00   1.598483E+00   1.050483E+01   3.839782E-01   8.884031E-01   9.462558E+00   3.068545E+00   1.169560E+01   8.216426E+00   4.088615E+00   1.176349E+01   7.790784E+00   2.433691E+00   1.099917E+00   9.922796E+00   2.042543E+00   5.148638E+00   9.617811E+00   1.026063E+00   1.033545E+01   9.527562E+00   1.304272E+00   8.169090E+00   9.219395E+00   3.421463E+00   9.364689E+00   1.982026E-01   3.732410E-01   1.062193E+01   1.985301E-01   5.387766E-01   1.185117E+01   1.989347E-01   1.989440E-01   1.209457E+01   1.970049E-01   5.326165E-01   1.328382E+01   1.977984E-01   1.986232E-01   1.422935E+01   1.995151E-01   5.464636E-01   2.005022E-01   1.999893E-01   1.996806E-01   6.402298E-01   1.997905E-01   1.998160E-01   1.566247E+00   3.594050E-01   1.961034E-01   2.287890E+00   3.584546E-01   1.996537E-01   3.184521E+00   1.989682E-01   2.001016E-01   4.353742E+00   1.997419E-01   2.453306E-01   6.661282E+00   2.891828E-01   2.067938E-01   6.666432E+00   1.477737E+01   1.232624E+00   1.131070E+01   1.348401E+01   2.125597E+00   1.416540E+01   8.286224E+00   4.604261E-01   1.013116E+01   8.618530E+00   1.119142E+00   4.391794E+00   9.917834E+00   6.235469E-01   3.520162E+00   1.081127E+01   4.955724E-01   5.340724E-01   8.821080E+00   4.607153E+00   2.062939E+00   9.877688E+00   2.667833E+00   2.554207E+00   7.601692E+00   3.235728E+00   1.401202E+01   7.391332E+00   2.404109E+00   1.351782E+01   1.053427E+01   4.026393E+00   1.480084E+01   8.025289E+00   2.780120E+00   1.254543E+01   8.466640E+00   3.331716E+00   2.464844E+00   7.283554E+00   4.368088E+00   1.269334E+01   7.872992E+00   2.076867E+00   1.068033E+01   7.910144E+00   2.837891E+00   8.433940E+00   9.181870E+00   3.856467E-01   1.045065E+01   9.902100E+00   2.311866E+00   7.751049E+00   6.425398E+00   1.888583E+00   1.041081E+01   1.989804E-01   1.995321E-01   1.143583E+01   1.977485E-01   2.192033E-01   1.220467E+01   3.838838E-01   1.985843E-01   1.291904E+01   3.597319E-01   1.993428E-01   1.401762E+01   1.939220E-01   2.072914E-01   1.480011E+01   1.994361E-01   1.996818E-01   1.095877E+00   4.723782E-01   6.376253E-01   1.045678E+00   1.998741E-01   2.000181E-01   1.964531E+00   4.340222E-01   5.633330E-01   2.677794E+00   2.638382E-01   5.903798E-01   4.694562E+00   1.993767E-01   5.639659E-01   5.622931E+00   2.000246E-01   1.048912E+00   7.622717E+00   7.496951E+00   2.228919E+00   9.260078E+00   1.179643E+01   9.562666E-01   1.019440E+01   1.025120E+01   2.981096E+00   1.665604E+00   7.926236E+00   4.872198E+00   1.324624E+01   7.181268E+00   2.706187E+00   1.081135E+00   1.012706E+01   1.996398E-01   9.131619E-01   9.575394E+00   1.318366E+00   3.022936E+00   1.288406E+01   1.122436E+00   8.142050E-01   9.565808E+00   2.491783E+00   6.833633E-01   9.388268E+00   4.637838E+00   1.440664E+01   8.967255E+00   3.120597E+00   1.276776E+00   9.559902E+00   2.587183E+00   1.396895E+01   9.273594E+00   2.638751E+00   1.424502E+01   9.283115E+00   2.935960E+00   1.048934E+01   7.656698E+00   3.082972E+00   3.207716E+00   8.611959E+00   2.019029E-01   8.827753E+00   9.764287E+00   5.743378E-01   6.689608E+00   9.931602E+00   6.397202E-01   9.237973E+00   1.593108E+01   3.284393E+00   7.612139E+00   1.298906E+00   7.035143E-01   9.610932E+00   1.995822E-01   9.278893E-01   1.102694E+01   1.989170E-01   5.520721E-01   1.249849E+01   1.985027E-01   8.562157E-01   1.365168E+01   3.541173E-01   1.988376E-01   1.440937E+01   2.843747E-01   1.997814E-01   1.990138E-01   5.679353E-01   8.787413E-01   5.227363E-01   3.770081E-01   7.457650E-01   1.562983E+00   1.983627E-01   8.100696E-01   2.951964E+00   4.765723E-01   8.458823E-01   3.546494E+00   1.991932E-01   5.949659E-01   5.616134E+00   1.989214E-01   5.438256E-01   6.708154E+00   2.842767E+00   1.394778E+00   4.564583E+00   1.262202E+01   1.314089E+00   9.965225E+00   1.009469E+01   2.070732E+00   9.608204E-01   8.510478E+00   1.998892E-01   1.575524E+00   7.392516E+00   4.870763E-01   1.313001E+00   9.186790E+00   2.450275E+00   7.753741E-01   9.945499E+00   1.254666E+00   1.102817E+00   1.226080E+01   9.815501E-01   1.317508E+00   9.802170E+00   2.084036E-01   2.349910E-01   1.027813E+01   1.645131E+00   1.446501E+01   8.729884E+00   6.654734E-01   1.411630E+01   7.841230E+00   3.628881E+00   1.375930E+01   8.044776E+00   4.788329E+00   6.759803E-01   8.227387E+00   4.151539E+00   9.971167E+00   8.158656E+00   2.029477E-01   1.801988E+00   7.327217E+00   3.175409E+00   3.736193E+00   9.811178E+00   1.709718E+00   1.267916E+01   1.179895E+01   2.182060E+00   7.170764E+00   7.843501E+00   1.756913E+00   7.502426E+00   1.050423E+01   2.510642E+00   1.037140E+01   1.997492E-01   8.504386E-01   1.118177E+01   3.450820E-01   8.904727E-01   1.444689E+01   5.349968E-01   5.442039E-01   1.432331E+01   5.177847E-01   1.134627E+00   1.473937E+01   9.048055E-01   5.929341E-01   8.470573E-01   5.224019E-01   3.285907E-01   1.221105E+00   5.593023E-01   1.991620E-01   1.572953E+00   5.102277E-01   5.632319E-01   2.919296E+00   4.966907E-01   1.987270E-01   3.969507E+00   3.002887E-01   1.992146E-01   4.858912E+00   1.981569E-01   1.995573E-01   6.730388E+00   1.803947E+00   8.790410E-01   6.507277E+00   9.573218E+00   5.604512E-01   2.625858E+00   7.247013E+00   3.405421E+00   1.429208E+01   8.561516E+00   1.998455E-01   8.632336E-01   8.956487E+00   1.433512E+00   2.044440E+00   8.167923E+00   4.063136E+00   4.653484E-01   1.010008E+01   4.480064E+00   1.642552E+00   7.633103E+00   3.377574E+00   1.416332E+01   8.918380E+00   2.795698E+00   1.444354E+01   9.112271E+00   5.561867E-01   1.410861E+01   9.755157E+00   1.584413E+00   2.006650E-01   8.687876E+00   2.825360E+00   1.397859E+01   7.470210E+00   3.574866E+00   1.508026E+00   7.740732E+00   1.859676E+00   1.309579E+01   7.754037E+00   2.947165E+00   7.875710E+00   1.203241E+01   1.198997E+00   9.708918E+00   1.003513E+01   1.331256E+00   2.326010E+00   1.098440E+01   2.281575E+00   7.408475E+00   1.250710E+00   2.766517E-01   1.083305E+01   1.978268E-01   1.993878E-01   1.113439E+01   4.584248E-01   1.989316E-01   1.351464E+01   5.901871E-01   5.321754E-01   1.402494E+01   5.879599E-01   2.192605E-01   1.480069E+01   5.645967E-01  
[...]
<PointData Scalars="Diameter" Vectors="Velocity">
<DataArray type="Float32" Name="Diameter" format="ascii">
  4.000000E-01   4.000000E-01   4.000000E-01   4.000000E-01   4.000000E-01   4.000000E-01   4.000000E-01   4.000000E-01   4.000000E-01   4.000000E-01   4.000000E-01   4.000000E-01   4.000000E-01   4.000000E-01   4.000000E-01   4.000000E-01   4.000000E-01   4.000000E-01   4.000000E-01   4.000000E-01   4.000000E-01   4.000000E-01   4.000000E-01   4.000000E-01   4.000000E-01   4.000000E-01   4.000000E-01   4.000000E-01   4.000000E-01   4.000000E-01   4.000000E-01   4.000000E-01   4.000000E-01   4.000000E-01   4.000000E-01   4.000000E-01   4.000000E-01   4.000000E-01   4.000000E-01   4.000000E-01   4.000000E-01   4.000000E-01   4.000000E-01   4.000000E-01   4.000000E-01   4.000000E-01   4.000000E-01   4.000000E-01   4.000000E-01   4.000000E-01   4.000000E-01   4.000000E-01   4.000000E-01   4.000000E-01   4.000000E-01   4.000000E-01   4.000000E-01   4.000000E-01   4.000000E-01   4.000000E-01   4.000000E-01   4.000000E-01   4.000000E-01   4.000000E-01   4.000000E-01   4.000000E-01   4.000000E-01   4.000000E-01   4.000000E-01   4.000000E-01   4.000000E-01   4.000000E-01   4.000000E-01   4.000000E-01   4.000000E-01   4.000000E-01   4.000000E-01   4.000000E-01   4.000000E-01   4.000000E-01   4.000000E-01   4.000000E-01   4.000000E-01   4.000000E-01   4.000000E-01   4.000000E-01   4.000000E-01   4.000000E-01   4.000000E-01   4.000000E-01   4.000000E-01   4.000000E-01   4.000000E-01   4.000000E-01   4.000000E-01   4.000000E-01   4.000000E-01   4.000000E-01   4.000000E-01   4.000000E-01   4.000000E-01   4.000000E-01   4.000000E-01   4.000000E-01   4.000000E-01   4.000000E-01   4.000000E-01   4.000000E-01   4.000000E-01   4.000000E-01   4.000000E-01   4.000000E-01   4.000000E-01   4.000000E-01   4.000000E-01   4.000000E-01   4.000000E-01   4.000000E-01   4.000000E-01   4.000000E-01   4.000000E-01   4.000000E-01   4.000000E-01   4.000000E-01   4.000000E-01   4.000000E-01   4.000000E-01   4.000000E-01   4.000000E-01   4.000000E-01   4.000000E-01   4.000000E-01   4.000000E-01   4.000000E-01   4.000000E-01   4.000000E-01   4.000000E-01   4.000000E-01   4.000000E-01   4.000000E-01   4.000000E-01   4.000000E-01   4.000000E-01   4.000000E-01   4.000000E-01   4.000000E-01   4.000000E-01   4.000000E-01   4.000000E-01   4.000000E-01   4.000000E-01   4.000000E-01   4.000000E-01   4.000000E-01   4.000000E-01   4.000000E-01   4.000000E-01   4.000000E-01   4.000000E-01   4.000000E-01   4.000000E-01   4.000000E-01   4.000000E-01   4.000000E-01   4.000000E-01   4.000000E-01   4.000000E-01   4.000000E-01   4.000000E-01   4.000000E-01   4.000000E-01   4.000000E-01   4.000000E-01   4.000000E-01   4.000000E-01   4.000000E-01   4.000000E-01   4.000000E-01   4.000000E-01   4.000000E-01   4.000000E-01   4.000000E-01   4.000000E-01   4.000000E-01   4.000000E-01   4.000000E-01   4.000000E-01   4.000000E-01   4.000000E-01   4.000000E-01   4.000000E-01   4.000000E-01   4.000000E-01   4.000000E-01   4.000000E-01   4.000000E-01   4.000000E-01   4.000000E-01   4.000000E-01   4.000000E-01   4.000000E-01   4.000000E-01   4.000000E-01   4.000000E-01   4.000000E-01   4.000000E-01   4.000000E-01   4.000000E-01   4.000000E-01   4.000000E-01   4.000000E-01   4.000000E-01   4.000000E-01   4.000000E-01   4.000000E-01   4.000000E-01   4.000000E-01   4.000000E-01   4.000000E-01   4.000000E-01   4.000000E-01   4.000000E-01   4.000000E-01   4.000000E-01   4.000000E-01   4.000000E-01   4.000000E-01   4.000000E-01   4.000000E-01   4.000000E-01   4.000000E-01   4.000000E-01   4.000000E-01   4.000000E-01   4.000000E-01   4.000000E-01   4.000000E-01   4.000000E-01   4.000000E-01   4.000000E-01   4.000000E-01   4.000000E-01   4.000000E-01   4.000000E-01   4.000000E-01   4.000000E-01   4.000000E-01   4.000000E-01   4.000000E-01   4.000000E-01   4.000000E-01   4.000000E-01   4.000000E-01   4.000000E-01   4.000000E-01   4.000000E-01   4.000000E-01   4.000000E-01   4.000000E-01   4.000000E-01   4.000000E-01   4.000000E-01   4.000000E-01   4.000000E-01   4.000000E-01   4.000000E-01   4.000000E-01   4.000000E-01   4.000000E-01   4.000000E-01   4.000000E-01   4.000000E-01   4.000000E-01   4.000000E-01   4.000000E-01   4.000000E-01   4.000000E-01   4.000000E-01   4.000000E-01   4.000000E-01   4.000000E-01   4.000000E-01   4.000000E-01   4.000000E-01   4.000000E-01   4.000000E-01   4.000000E-01   4.000000E-01   4.000000E-01   4.000000E-01   4.000000E-01   4.000000E-01   4.000000E-01   4.000000E-01   4.000000E-01   4.000000E-01   4.000000E-01   4.000000E-01   4.000000E-01   4.000000E-01   4.000000E-01   4.000000E-01   4.000000E-01   4.000000E-01   4.000000E-01   4.000000E-01   4.000000E-01   4.000000E-01   4.000000E-01   4.000000E-01   4.000000E-01   4.000000E-01   4.000000E-01   4.000000E-01   4.000000E-01   4.000000E-01   4.000000E-01   4.000000E-01   4.000000E-01   4.000000E-01   4.000000E-01   4.000000E-01   4.000000E-01   4.000000E-01   4.000000E-01   4.000000E-01   4.000000E-01   4.000000E-01   4.000000E-01   4.000000E-01   4.000000E-01   4.000000E-01   4.000000E-01   4.000000E-01   4.000000E-01   4.000000E-01   4.000000E-01   4.000000E-01   4.000000E-01   4.000000E-01   4.000000E-01   4.000000E-01   4.000000E-01   4.000000E-01   4.000000E-01   4.000000E-01   4.000000E-01   4.000000E-01   4.000000E-01   4.000000E-01   4.000000E-01   4.000000E-01   4.000000E-01   4.000000E-01   4.000000E-01   4.000000E-01   4.000000E-01   4.000000E-01   4.000000E-01   4.000000E-01   4.000000E-01   4.000000E-01   4.000000E-01   4.000000E-01   4.000000E-01   4.000000E-01   4.000000E-01   4.000000E-01   4.000000E-01   4.000000E-01   4.000000E-01   4.000000E-01   4.000000E-01   4.000000E-01   4.000000E-01   4.000000E-01   4.000000E-01   4.000000E-01   4.000000E-01   4.000000E-01   4.000000E-01   4.000000E-01   4.000000E-01   4.000000E-01   4.000000E-01   4.000000E-01   4.000000E-01   4.000000E-01   4.000000E-01   4.000000E-01   4.000000E-01   4.000000E-01   4.000000E-01   4.000000E-01   4.000000E-01   4.000000E-01   4.000000E-01   4.000000E-01   4.000000E-01   4.000000E-01   4.000000E-01   4.000000E-01   4.000000E-01   4.000000E-01   4.000000E-01   4.000000E-01   4.000000E-01   4.000000E-01   4.000000E-01   4.000000E-01   4.000000E-01   4.000000E-01   4.000000E-01   4.000000E-01   4.000000E-01   4.000000E-01   4.000000E-01   4.000000E-01   4.000000E-01   4.000000E-01   4.000000E-01   4.000000E-01   4.000000E-01   4.000000E-01   4.000000E-01   4.000000E-01   4.000000E-01   4.000000E-01   4.000000E-01   4.000000E-01   4.000000E-01   4.000000E-01   4.000000E-01   4.000000E-01   4.000000E-01   4.000000E-01   4.000000E-01   4.000000E-01   4.000000E-01   4.000000E-01   4.000000E-01   4.000000E-01   4.000000E-01   4.000000E-01   4.000000E-01   4.000000E-01   4.000000E-01   4.000000E-01   4.000000E-01   4.000000E-01   4.000000E-01   4.000000E-01   4.000000E-01   4.000000E-01   4.000000E-01   4.000000E-01   4.000000E-01   4.000000E-01   4.000000E-01   4.000000E-01   4.000000E-01   4.000000E-01   4.000000E-01   4.000000E-01   4.000000E-01   4.000000E-01   4.000000E-01   4.000000E-01   4.000000E-01   4.000000E-01   4.000000E-01   4.000000E-01   4.000000E-01   4.000000E-01   4.000000E-01   4.000000E-01   4.000000E-01   4.000000E-01   4.000000E-01   4.000000E-01   4.000000E-01   4.000000E-01   4.000000E-01   4.000000E-01   4.000000E-01   4.000000E-01   4.000000E-01   4.000000E-01   4.000000E-01   4.000000E-01   4.000000E-01   4.000000E-01   4.000000E-01   4.000000E-01   4.000000E-01   4.000000E-01   4.000000E-01   4.000000E-01   4.000000E-01   4.000000E-01   4.000000E-01   4.000000E-01   4.000000E-01   4.000000E-01   4.000000E-01   4.000000E-01   4.000000E-01   4.000000E-01   4.000000E-01   4.000000E-01   4.000000E-01   4.000000E-01   4.000000E-01   4.000000E-01   4.000000E-01   4.000000E-01   4.000000E-01   4.000000E-01   4.000000E-01   4.000000E-01   4.000000E-01   4.000000E-01   4.000000E-01   4.000000E-01   4.000000E-01   4.000000E-01   4.000000E-01   4.000000E-01   4.000000E-01   4.000000E-01   4.000000E-01   4.000000E-01   4.000000E-01   4.000000E-01   4.000000E-01   4.000000E-01   4.000000E-01   4.000000E-01   4.000000E-01   4.000000E-01   4.000000E-01   4.000000E-01   4.000000E-01   4.000000E-01   4.000000E-01   4.000000E-01   4.000000E-01   4.000000E-01   4.000000E-01   4.000000E-01   4.000000E-01   4.000000E-01   4.000000E-01   4.000000E-01   4.000000E-01   4.000000E-01   4.000000E-01   4.000000E-01   4.000000E-01   4.000000E-01   4.000000E-01   4.000000E-01   4.000000E-01   4.000000E-01   4.000000E-01   4.000000E-01   4.000000E-01   4.000000E-01   4.000000E-01   4.000000E-01   4.000000E-01   4.000000E-01   4.000000E-01   4.000000E-01   4.000000E-01   4.000000E-01   4.000000E-01   4.000000E-01   4.000000E-01   4.000000E-01   4.000000E-01   4.000000E-01   4.000000E-01   4.000000E-01   4.000000E-01   4.000000E-01   4.000000E-01   4.000000E-01   4.000000E-01   4.000000E-01   4.000000E-01   4.000000E-01   4.000000E-01   4.000000E-01   4.000000E-01   4.000000E-01   4.000000E-01   4.000000E-01   4.000000E-01   4.000000E-01   4.000000E-01   4.000000E-01   4.000000E-01   4.000000E-01   4.000000E-01   4.000000E-01   4.000000E-01   4.000000E-01   4.000000E-01   4.000000E-01   4.000000E-01   4.000000E-01   4.000000E-01   4.000000E-01   4.000000E-01   4.000000E-01   4.000000E-01   4.000000E-01   4.000000E-01   4.000000E-01   4.000000E-01   4.000000E-01   4.000000E-01   4.000000E-01   4.000000E-01   4.000000E-01   4.000000E-01   4.000000E-01   4.000000E-01   4.000000E-01   4.000000E-01   4.000000E-01   4.000000E-01   4.000000E-01   4.000000E-01   4.000000E-01   4.000000E-01   4.000000E-01   4.000000E-01   4.000000E-01   4.000000E-01   4.000000E-01   4.000000E-01   4.000000E-01   4.000000E-01   4.000000E-01   4.000000E-01   4.000000E-01   4.000000E-01   4.000000E-01   4.000000E-01   4.000000E-01   4.000000E-01   4.000000E-01   4.000000E-01   4.000000E-01   4.000000E-01   4.000000E-01   4.000000E-01   4.000000E-01   4.000000E-01   4.000000E-01   4.000000E-01   4.000000E-01   4.000000E-01   4.000000E-01   4.000000E-01   4.000000E-01   4.000000E-01   4.000000E-01   4.000000E-01   4.000000E-01   4.000000E-01   4.000000E-01   4.000000E-01   4.000000E-01   4.000000E-01   4.000000E-01   4.000000E-01   4.000000E-01   4.000000E-01   4.000000E-01   4.000000E-01   4.000000E-01   4.000000E-01   4.000000E-01   4.000000E-01   4.000000E-01   4.000000E-01   4.000000E-01   4.000000E-01   4.000000E-01   4.000000E-01   4.000000E-01   4.000000E-01   4.000000E-01   4.000000E-01   4.000000E-01   4.000000E-01   4.000000E-01   4.000000E-01   4.000000E-01   4.000000E-01   4.000000E-01   4.000000E-01   4.000000E-01   4.000000E-01   4.000000E-01   4.000000E-01   4.000000E-01   4.000000E-01   4.000000E-01   4.000000E-01   4.000000E-01   4.000000E-01   4.000000E-01   4.000000E-01   4.000000E-01   4.000000E-01   4.000000E-01   4.000000E-01   4.000000E-01   4.000000E-01   4.000000E-01   4.000000E-01   4.000000E-01   4.000000E-01   4.000000E-01   4.000000E-01   4.000000E-01   4.000000E-01   4.000000E-01   4.000000E-01   4.000000E-01   4.000000E-01   4.000000E-01   4.000000E-01   4.000000E-01   4.000000E-01   4.000000E-01   4.000000E-01   4.000000E-01   4.000000E-01   4.000000E-01   4.000000E-01   4.000000E-01   4.000000E-01   4.000000E-01   4.000000E-01   4.000000E-01   4.000000E-01   4.000000E-01   4.000000E-01   4.000000E-01   4.000000E-01   4.000000E-01   4.000000E-01   4.000000E-01   4.000000E-01   4.000000E-01   4.000000E-01   4.000000E-01   4.000000E-01   4.000000E-01   4.000000E-01   4.000000E-01   4.000000E-01   4.000000E-01   4.000000E-01   4.000000E-01   4.000000E-01   4.000000E-01   4.000000E-01   4.000000E-01   4.000000E-01   4.000000E-01   4.000000E-01   4.000000E-01   4.000000E-01   4.000000E-01   4.000000E-01   4.000000E-01   4.000000E-01   4.000000E-01   4.000000E-01   4.000000E-01   4.000000E-01   4.000000E-01   4.000000E-01   4.000000E-01   4.000000E-01   4.000000E-01   4.000000E-01   4.000000E-01   4.000000E-01   4.000000E-01   4.000000E-01   4.000000E-01   4.000000E-01   4.000000E-01   4.000000E-01   4.000000E-01   4.000000E-01   4.000000E-01   4.000000E-01   4.000000E-01   4.000000E-01   4.000000E-01   4.000000E-01   4.000000E-01   4.000000E-01   4.000000E-01   4.000000E-01   4.000000E-01   4.000000E-01   4.000000E-01   4.000000E-01   4.000000E-01   4.000000E-01   4.000000E-01   4.000000E-01   4.000000E-01   4.000000E-01   4.000000E-01   4.000000E-01   4.000000E-01   4.000000E-01   4.000000E-01   4.000000E-01   4.000000E-01   4.000000E-01   4.000000E-01   4.000000E-01   4.000000E-01   4.000000E-01   4.000000E-01   4.000000E-01   4.000000E-01   4.000000E-01   4.000000E-01   4.000000E-01   4.000000E-01   4.000000E-01   4.000000E-01   4.000000E-01   4.000000E-01   4.000000E-01   4.000000E-01   4.000000E-01   4.000000E-01   4.000000E-01   4.000000E-01   4.000000E-01   4.000000E-01   4.000000E-01   4.000000E-01   4.000000E-01   4.000000E-01   4.000000E-01   4.000000E-01   4.000000E-01   4.000000E-01   4.000000E-01   4.000000E-01   4.000000E-01   4.000000E-01   4.000000E-01   4.000000E-01   4.000000E-01   4.000000E-01   4.000000E-01   4.000000E-01   4.000000E-01   4.000000E-01   4.000000E-01   4.000000E-01   4.000000E-01   4.000000E-01   4.000000E-01   4.000000E-01   4.000000E-01   4.000000E-01   4.000000E-01   4.000000E-01   4.000000E-01   4.000000E-01   4.000000E-01   4.000000E-01   4.000000E-01   4.000000E-01   4.000000E-01   4.000000E-01   4.000000E-01   4.000000E-01   4.000000E-01   4.000000E-01   4.000000E-01   4.000000E-01   4.000000E-01   4.000000E-01   4.000000E-01   4.000000E-01   4.000000E-01   4.000000E-01   4.000000E-01   4.000000E-01   4.000000E-01   4.000000E-01   4.000000E-01   4.000000E-01   4.000000E-01   4.000000E-01   4.000000E-01   4.000000E-01   4.000000E-01   4.000000E-01   4.000000E-01   4.000000E-01   4.000000E-01   4.000000E-01   4.000000E-01   4.000000E-01   4.000000E-01   4.000000E-01   4.000000E-01   4.000000E-01   4.000000E-01   4.000000E-01   4.000000E-01   4.000000E-01   4.000000E-01   4.000000E-01   4.000000E-01   4.000000E-01   4.000000E-01   4.000000E-01   4.000000E-01   4.000000E-01   4.000000E-01   4.000000E-01   4.000000E-01   4.000000E-01   4.000000E-01   4.000000E-01   4.000000E-01   4.000000E-01   4.000000E-01   4.000000E-01   4.000000E-01   4.000000E-01   4.000000E-01   4.000000E-01   4.000000E-01   4.000000E-01   4.000000E-01   4.000000E-01   4.000000E-01   4.000000E-01   4.000000E-01   4.000000E-01   4.000000E-01   4.000000E-01   4.000000E-01   4.000000E-01   4.000000E-01   4.000000E-01   4.000000E-01   4.000000E-01   4.000000E-01   4.000000E-01   4.000000E-01   4.000000E-01   4.000000E-01   4.000000E-01   4.000000E-01   4.000000E-01   4.000000E-01   4.000000E-01   4.000000E-01   4.000000E-01   4.000000E-01   4.000000E-01   4.000000E-01   4.000000E-01   4.000000E-01   4.000000E-01   4.000000E-01   4.000000E-01   4.000000E-01   4.000000E-01   4.000000E-01   4.000000E-01   4.000000E-01   4.000000E-01   4.000000E-01   4.000000E-01   4.000000E-01   4.000000E-01   4.000000E-01   4.000000E-01   4.000000E-01   4.000000E-01   4.000000E-01   4.000000E-01   4.000000E-01   4.000000E-01   4.000000E-01   4.000000E-01   4.000000E-01   4.000000E-01   4.000000E-01   4.000000E-01   4.000000E-01   4.000000E-01   4.000000E-01   4.000000E-01   4.000000E-01   4.000000E-01   4.000000E-01   4.000000E-01   4.000000E-01   4.000000E-01   4.000000E-01   4.000000E-01   4.000000E-01   4.000000E-01   4.000000E-01   4.000000E-01   4.000000E-01   4.000000E-01   4.000000E-01   4.000000E-01   4.000000E-01   4.000000E-01   4.000000E-01   4.000000E-01   4.000000E-01   4.000000E-01   4.000000E-01   4.000000E-01   4.000000E-01   4.000000E-01   4.000000E-01   4.000000E-01   4.000000E-01   4.000000E-01   4.000000E-01   4.000000E-01   4.000000E-01   4.000000E-01   4.000000E-01   4.000000E-01   4.000000E-01   4.000000E-01   4.000000E-01   4.000000E-01   4.000000E-01   4.000000E-01   4.000000E-01   4.000000E-01   4.000000E-01   4.000000E-01   4.000000E-01   4.000000E-01   4.000000E-01   4.000000E-01   4.000000E-01   4.000000E-01   4.000000E-01   4.000000E-01   4.000000E-01   4.000000E-01   4.000000E-01   4.000000E-01   4.000000E-01   4.000000E-01   4.000000E-01   4.000000E-01   4.000000E-01   4.000000E-01   4.000000E-01   4.000000E-01   4.000000E-01   4.000000E-01   4.000000E-01   4.000000E-01   4.000000E-01   4.000000E-01   4.000000E-01   4.000000E-01   4.000000E-01   4.000000E-01   4.000000E-01   4.000000E-01   4.000000E-01   4.000000E-01   4.000000E-01   4.000000E-01   4.000000E-01   4.000000E-01   4.000000E-01   4.000000E-01   4.000000E-01   4.000000E-01   4.000000E-01   4.000000E-01   4.000000E-01   4.000000E-01   4.000000E-01   4.000000E-01   4.000000E-01   4.000000E-01   4.000000E-01   4.000000E-01   4.000000E-01   4.000000E-01   4.000000E-01   4.000000E-01   4.000000E-01   4.000000E-01   4.000000E-01   4.000000E-01   4.000000E-01   4.000000E-01   4.000000E-01   4.000000E-01   4.000000E-01   4.000000E-01   4.000000E-01   4.000000E-01   4.000000E-01   4.000000E-01   4.000000E-01   4.000000E-01   4.000000E-01   4.000000E-01   4.000000E-01   4.000000E-01   4.000000E-01   4.000000E-01   4.000000E-01   4.000000E-01   4.000000E-01   4.000000E-01   4.000000E-01   4.000000E-01   4.000000E-01   4.000000E-01   4.000000E-01   4.000000E-01   4.000000E-01   4.000000E-01   4.000000E-01   4.000000E-01   4.000000E-01   4.000000E-01   4.000000E-01   4.000000E-01   4.000000E-01   4.000000E-01   4.000000E-01   4.000000E-01   4.000000E-01   4.000000E-01   4.000000E-01   4.000000E-01   4.000000E-01   4.000000E-01   4.000000E-01   4.000000E-01   4.000000E-01   4.000000E-01   4.000000E-01   4.000000E-01   4.000000E-01   4.000000E-01   4.000000E-01   4.000000E-01   4.000000E-01   4.000000E-01   4.000000E-01   4.000000E-01   4.000000E-01   4.000000E-01   4.000000E-01   4.000000E-01   4.000000E-01   4.000000E-01   4.000000E-01   4.000000E-01   4.000000E-01   4.000000E-01   4.000000E-01   4.000000E-01   4.000000E-01   4.000000E-01   4.000000E-01   4.000000E-01   4.000000E-01   4.000000E-01   4.000000E-01   4.000000E-01   4.000000E-01   4.000000E-01   4.000000E-01   4.000000E-01   4.000000E-01   4.000000E-01   4.000000E-01   4.000000E-01   4.000000E-01   4.000000E-01   4.000000E-01   4.000000E-01   4.000000E-01   4.000000E-01   4.000000E-01   4.000000E-01   4.000000E-01   4.000000E-01   4.000000E-01   4.000000E-01   4.000000E-01   4.000000E-01   4.000000E-01   4.000000E-01   4.000000E-01   4.000000E-01   4.000000E-01   4.000000E-01   4.000000E-01   4.000000E-01   4.000000E-01   4.000000E-01   4.000000E-01   4.000000E-01   4.000000E-01   4.000000E-01   4.000000E-01   4.000000E-01   4.000000E-01   4.000000E-01   4.000000E-01   4.000000E-01   4.000000E-01   4.000000E-01   4.000000E-01   4.000000E-01   4.000000E-01   4.000000E-01   4.000000E-01   4.000000E-01   4.000000E-01   4.000000E-01   4.000000E-01   4.000000E-01   4.000000E-01   4.000000E-01   4.000000E-01   4.000000E-01   4.000000E-01   4.000000E-01   4.000000E-01   4.000000E-01   4.000000E-01   4.000000E-01   4.000000E-01   4.000000E-01   4.000000E-01   4.000000E-01   4.000000E-01   4.000000E-01   4.000000E-01   4.000000E-01   4.000000E-01   4.000000E-01   4.000000E-01   4.000000E-01   4.000000E-01   4.000000E-01   4.000000E-01   4.000000E-01   4.000000E-01   4.000000E-01   4.000000E-01   4.000000E-01   4.000000E-01   4.000000E-01   4.000000E-01   4.000000E-01   4.000000E-01   4.000000E-01   4.000000E-01   4.000000E-01   4.000000E-01   4.000000E-01   4.000000E-01   4.000000E-01   4.000000E-01   4.000000E-01   4.000000E-01   4.000000E-01   4.000000E-01   4.000000E-01   4.000000E-01   4.000000E-01   4.000000E-01   4.000000E-01   4.000000E-01   4.000000E-01   4.000000E-01   4.000000E-01   4.000000E-01   4.000000E-01   4.000000E-01   4.000000E-01   4.000000E-01   4.000000E-01   4.000000E-01   4.000000E-01   4.000000E-01   4.000000E-01   4.000000E-01   4.000000E-01   4.000000E-01   4.000000E-01   