<?xml version="1.0"?>
<!-- Time =  4.0085829269476819E-01s -->
<VTKFile type="PolyData" version="0.1" byte_order="LittleEndian">
<PolyData>
<Piece NumberOfPoints="0000028800" NumberOfVerts="0" NumberOfLines="0" NumberOfStrips="0" NumberOfPolys="0">
<Points>
<DataArray type="Float32" Name="Position" NumberOfComponents="3" format="ascii">
  7.752711E-01   1.988923E-01   5.578604E-01   1.254420E+00   1.982061E-01   3.751746E-01   1.612622E+00   1.983026E-01   1.995442E-01   2.623582E+00   1.959906E-01   1.969952E-01   2.789020E+00   1.978850E-01   5.577475E-01   3.778655E+00   1.993520E-01   5.377652E-01   4.436004E+00   1.987617E-01   5.582815E-01   4.703279E+00   1.961428E-01   8.607635E-01   5.704204E+00   1.994826E-01   2.037683E-01   6.356545E+00   6.769626E+00   1.810167E+00   6.955348E+00   9.381222E+00   2.254908E+00   5.277730E+00   4.270465E+00   2.793935E+00   5.688850E+00   3.356022E+00   2.080451E+00   5.026509E+00   4.877530E+00   2.778315E+00   3.725819E+00   1.033776E+01   2.236145E+00   5.170872E+00   4.038910E+00   4.175868E+00   4.940121E+00   5.167618E+00   3.225669E+00   1.050922E+01   5.780612E+00   3.673378E+00   1.164133E+01   8.466047E+00   2.843308E+00   3.247991E+00   9.152416E+00   2.461288E+00   1.011840E+01   5.893871E+00   2.105491E+00   5.315070E+00   8.456071E+00   1.826687E+00   9.124935E+00   1.997655E-01   1.999029E-01   9.327905E+00   1.986503E-01   5.442888E-01   1.070951E+01   1.980015E-01   8.631609E-01   1.113000E+01   1.997619E-01   8.957364E-01   1.270818E+01   1.986648E-01   4.755272E-01   1.303473E+01   1.997914E-01   2.000022E-01   1.321558E+01   1.976998E-01   6.353511E-01   1.376885E+01   1.962000E-01   4.905226E-01   1.402014E+01   1.998431E-01   8.011323E-01   2.165207E-01   1.932179E-01   9.231167E-01   1.057025E+00   1.989169E-01   8.512785E-01   1.815971E+00   1.967091E-01   1.172881E+00   2.056578E+00   1.999040E-01   8.470423E-01   2.524498E+00   1.978749E-01   8.575623E-01   3.050493E+00   1.985971E-01   8.579944E-01   4.147417E+00   1.985303E-01   2.611995E-01   4.100201E+00   1.972315E-01   7.748441E-01   4.881877E+00   1.985515E-01   2.000049E-01   6.681896E+00   5.414388E-01   1.120152E+00   6.517331E+00   2.148483E-01   2.012936E-01   6.399494E+00   4.696082E+00   2.057526E+00   4.363581E+00   5.472880E+00   2.943627E+00   3.442093E+00   7.533762E+00   4.651150E+00   5.865638E+00   2.459133E+00   3.036865E+00   4.517627E+00   5.325994E+00   2.202863E+00   4.113576E+00   5.976433E+00   3.125516E+00   5.848302E+00   2.864185E+00   2.968321E+00   1.072962E+01   6.863769E+00   1.935487E+00   4.600005E+00   4.992554E+00   2.633171E+00   8.473935E+00   5.696142E+00   2.079537E+00   7.482937E+00   7.808455E+00   2.008693E+00   7.577173E+00   6.714125E+00   1.140066E+00   1.002797E+01   1.997196E-01   1.991122E-01   1.013525E+01   1.992776E-01   1.313781E+00   1.145145E+01   1.998851E-01   1.992406E-01   1.190309E+01   1.968398E-01   9.298100E-01   1.257952E+01   1.988427E-01   1.066772E+00   1.318517E+01   1.970409E-01   1.033207E+00   1.363396E+01   1.996911E-01   9.050602E-01   1.406287E+01   4.657521E-01   5.022416E-01   1.473101E+01   1.974794E-01   6.858616E-01   3.752627E-01   1.981975E-01   5.566422E-01   1.579404E+00   1.944125E-01   7.909568E-01   1.852750E+00   2.736390E-01   5.109949E-01   2.091930E+00   1.996894E-01   1.995814E-01   2.359508E+00   2.310159E-01   4.950629E-01   3.479859E+00   2.004030E-01   2.001599E-01   4.515063E+00   3.560557E-01   1.997612E-01   5.756786E+00   1.999111E-01   9.136840E-01   7.190603E+00   2.817913E+00   1.009834E+00   5.832605E+00   9.757580E+00   2.319049E+00   7.056031E+00   4.859854E+00   5.275260E-01   6.034202E+00   4.789770E+00   2.929065E+00   5.804651E+00   6.675636E+00   2.565872E+00   5.333859E+00   3.906706E+00   2.624393E+00   5.746702E+00   5.039865E+00   2.588573E+00   3.596531E+00   7.693211E+00   2.691405E+00   4.730870E+00   4.987850E+00   2.241987E+00   4.035887E+00   1.094979E+01   2.156516E+00   9.026954E+00   7.984507E+00   2.457464E+00   8.986237E+00   1.347200E+01   3.271776E+00   7.226716E+00   2.675750E+00   5.532028E-01   4.006040E+00   6.161696E+00   3.466059E+00   7.721014E+00   1.237724E+00   2.662027E-01   8.758554E+00   1.998345E-01   5.733642E-01   1.075529E+01   2.001276E-01   1.998612E-01   1.165046E+01   1.994845E-01   5.452323E-01   1.213185E+01   1.951849E-01   4.784687E-01   1.270193E+01   4.859152E-01   1.984078E-01   1.298816E+01   4.841797E-01   4.772025E-01   1.345289E+01   1.958558E-01   1.996846E-01   1.436012E+01   1.991911E-01   5.167074E-01   1.987258E-01   1.891160E-01   1.990553E-01   5.976315E-01   1.995497E-01   1.997730E-01   1.398309E+00   5.359960E-01   2.027521E-01   1.841802E+00   5.235593E-01   1.991963E-01   2.376928E+00   5.056424E-01   1.998249E-01   3.080154E+00   1.997287E-01   2.012717E-01   3.817268E+00   4.149707E-01   1.987062E-01   5.048391E+00   2.006639E-01   1.180787E+00   5.304577E+00   1.988456E-01   2.012374E-01   7.181957E+00   3.786066E+00   1.850589E+00   7.265687E+00   3.131585E+00   7.769053E-01   5.319338E+00   3.391846E+00   1.934317E+00   6.047321E+00   3.092047E+00   2.582024E+00   4.447418E+00   5.957233E+00   2.724482E+00   4.931378E+00   3.459113E+00   1.998071E+00   6.131938E+00   4.049747E+00   8.961538E-01   1.040354E+01   1.057358E+01   2.365409E+00   1.038077E+01   4.689839E+00   3.122926E+00   8.418346E+00   3.992576E+00   1.734564E+00   1.124679E+01   1.054470E+01   2.233181E+00   5.667330E+00   4.900655E+00   3.097492E+00   8.280561E+00   5.931439E+00   4.802868E-01   8.718212E+00   9.535192E+00   1.087512E+00   8.017843E+00   1.124888E+00   6.425476E-01   8.704672E+00   2.063254E-01   1.299549E+00   1.099529E+01   1.973850E-01   5.205267E-01   1.185128E+01   1.956141E-01   1.978411E-01   1.241912E+01   1.998089E-01   1.998097E-01   1.299751E+01   7.699981E-01   1.990326E-01   1.334815E+01   5.786304E-01   1.975199E-01   1.404721E+01   1.996573E-01   1.999810E-01   1.460155E+01   1.949323E-01   1.980245E-01   9.393131E-01   5.626909E-01   5.565218E-01   9.503270E-01   3.863867E-01   1.986823E-01   1.643099E+00   6.173128E-01   5.330022E-01   2.132131E+00   5.596068E-01   5.117291E-01   3.099663E+00   4.486616E-01   5.470693E-01   3.390067E+00   1.950210E-01   6.492222E-01   4.265889E+00   5.438552E-01   6.658726E-01   5.496481E+00   1.985012E-01   5.576333E-01   7.379462E+00   9.522039E-01   2.098272E-01   5.975705E+00   9.454288E+00   1.422667E+00   7.544565E+00   5.742912E+00   7.355899E-01   5.098561E+00   4.893148E+00   1.967597E+00   4.107022E+00   6.208096E+00   2.232688E+00   5.371015E+00   3.799940E+00   3.362527E+00   4.839579E+00   4.817683E+00   3.392880E+00   5.266320E+00   4.434985E+00   3.589987E+00   9.730078E+00   4.920724E+00   2.450771E+00   3.373647E+00   1.012681E+01   2.642455E+00   1.142602E+01   8.869581E+00   3.045660E+00   1.154245E+01   9.298149E+00   3.291324E+00   9.078809E+00   1.158942E+01   1.928802E+00   6.213752E+00   9.175912E+00   1.025085E+00   7.573513E+00   1.866218E+00   9.510726E-01   8.270731E+00   4.570425E-01   1.079572E+00   1.032140E+01   1.976347E-01   5.184402E-01   1.131947E+01   4.301717E-01   5.373342E-01   1.191338E+01   4.798796E-01   6.529129E-01   1.240659E+01   4.804506E-01   4.888694E-01   1.317588E+01   5.743573E-01   8.195574E-01   1.374658E+01   4.651304E-01   1.983705E-01   1.432948E+01   4.828493E-01   2.053146E-01   1.985252E-01   5.844228E-01   8.850259E-01   5.727623E-01   5.096415E-01   7.066442E-01   1.305536E+00   4.563430E-01   6.743547E-01   2.044814E+00   7.850707E-01   8.301749E-01   2.484256E+00   7.295387E-01   6.808440E-01   3.543684E+00   5.152034E-01   4.715773E-01   3.933336E+00   5.405722E-01   8.866327E-01   5.019368E+00   4.431008E-01   8.480051E-01   6.287515E+00   1.996778E-01   5.281584E-01   6.936239E+00   3.385611E+00   9.399603E-01   7.194364E+00   7.101165E+00   1.863670E+00   4.134289E+00   1.012752E+01   2.017126E+00   5.793449E+00   3.864726E+00   1.080264E+00   4.315444E+00   6.485343E+00   2.003848E+00   5.615796E+00   4.535826E+00   1.717976E+00   5.400249E+00   3.951842E+00   2.179006E+00   5.023199E+00   1.371294E+01   3.453755E+00   1.027236E+01   5.957310E+00   1.346653E+00   1.014251E+01   6.587787E+00   1.730473E+00   9.342262E+00   4.852735E+00   2.531826E+00   5.787998E+00   4.673222E+00   2.159280E+00   7.688526E+00   3.838391E+00   2.159005E-01   7.456437E+00   3.417071E+00   1.122690E+00   8.753291E+00   3.469518E-01   1.999171E-01   9.833442E+00   1.998150E-01   9.397580E-01   1.040229E+01   4.251337E-01   1.997866E-01   1.126071E+01   6.023268E-01   8.954393E-01   1.224918E+01   6.979511E-01   7.845375E-01   1.264008E+01   6.381258E-01   8.720205E-01   1.448884E+01   5.607061E-01   6.280516E-01   1.442608E+01   5.244837E-01   1.144311E+00   1.480021E+01   8.232244E-01   5.927339E-01   6.217160E-01   5.816931E-01   3.152179E-01   9.695325E-01   7.857166E-01   2.026224E-01   1.251727E+00   8.010435E-01   4.860780E-01   2.120221E+00   8.078008E-01   1.985041E-01   2.848443E+00   5.248201E-01   2.211607E-01   3.251121E+00   5.751919E-01   1.996942E-01   4.191700E+00   5.898144E-01   2.001306E-01   6.512680E+00   2.567959E-01   8.549358E-01   7.078397E+00   4.001312E+00   1.115317E+00   6.104556E+00   1.024065E+01   2.976494E+00   7.329094E+00   4.291015E+00   9.463694E-01   4.313563E+00   7.806324E+00   9.143951E-01   7.086774E+00   6.359469E+00   1.053931E+00   6.883539E+00   5.231060E+00   3.247598E+00   6.125668E+00   5.007034E+00   2.447705E+00   1.065654E+01   8.236387E+00   1.885366E+00   9.125059E+00   4.285309E+00   1.657233E+00   9.752998E+00   3.849253E+00   2.505967E+00   4.911211E+00   5.258367E+00   2.803302E+00   1.052961E+01   1.162427E+01   1.635530E+00   7.148535E+00   1.040838E+01   2.163922E+00   7.478140E+00   3.965183E+00   1.128665E+00   8.360099E+00   2.758346E-01   2.004774E-01   8.567552E+00   2.271509E-01   9.245723E-01   9.727526E+00   1.990848E-01   5.538665E-01   1.110738E+01   4.027610E-01  
[...]
<PointData Scalars="Diameter" Vectors="Velocity">
<DataArray type="Float32" Name="Diameter" format="ascii">
  4.000000E-01   4.000000E-01   4.000000E-01   4.000000E-01   4.000000E-01   4.000000E-01   4.000000E-01   4.000000E-01   4.000000E-01   4.000000E-01   4.000000E-01   4.000000E-01   4.000000E-01   4.000000E-01   4.000000E-01   4.000000E-01   4.000000E-01   4.000000E-01   4.000000E-01   4.000000E-01   4.000000E-01   4.000000E-01   4.000000E-01   4.000000E-01   4.000000E-01   4.000000E-01   4.000000E-01   4.000000E-01   4.000000E-01   4.000000E-01   4.000000E-01   4.000000E-01   4.000000E-01   4.000000E-01   4.000000E-01   4.000000E-01   4.000000E-01   4.000000E-01   4.000000E-01   4.000000E-01   4.000000E-01   4.000000E-01   4.000000E-01   4.000000E-01   4.000000E-01   4.000000E-01   4.000000E-01   4.000000E-01   4.000000E-01   4.000000E-01   4.000000E-01   4.000000E-01   4.000000E-01   4.000000E-01   4.000000E-01   4.000000E-01   4.000000E-01   4.000000E-01   4.000000E-01   4.000000E-01   4.000000E-01   4.000000E-01   4.000000E-01   4.000000E-01   4.000000E-01   4.000000E-01   4.000000E-01   4.000000E-01   4.000000E-01   4.000000E-01   4.000000E-01   4.000000E-01   4.000000E-01   4.000000E-01   4.000000E-01   4.000000E-01   4.000000E-01   4.000000E-01   4.000000E-01   4.000000E-01   4.000000E-01   4.000000E-01   4.000000E-01   4.000000E-01   4.000000E-01   4.000000E-01   4.000000E-01   4.000000E-01   4.000000E-01   4.000000E-01   4.000000E-01   4.000000E-01   4.000000E-01   4.000000E-01   4.000000E-01   4.000000E-01   4.000000E-01   4.000000E-01   4.000000E-01   4.000000E-01   4.000000E-01   4.000000E-01   4.000000E-01   4.000000E-01   4.000000E-01   4.000000E-01   4.000000E-01   4.000000E-01   4.000000E-01   4.000000E-01   4.000000E-01   4.000000E-01   4.000000E-01   4.000000E-01   4.000000E-01   4.000000E-01   4.000000E-01   4.000000E-01   4.000000E-01   4.000000E-01   4.000000E-01   4.000000E-01   4.000000E-01   4.000000E-01   4.000000E-01   4.000000E-01   4.000000E-01   4.000000E-01   4.000000E-01   4.000000E-01   4.000000E-01   4.000000E-01   4.000000E-01   4.000000E-01   4.000000E-01   4.000000E-01   4.000000E-01   4.000000E-01   4.000000E-01   4.000000E-01   4.000000E-01   4.000000E-01   4.000000E-01   4.000000E-01   4.000000E-01   4.000000E-01   4.000000E-01   4.000000E-01   4.000000E-01   4.000000E-01   4.000000E-01   4.000000E-01   4.000000E-01   4.000000E-01   4.000000E-01   4.000000E-01   4.000000E-01   4.000000E-01   4.000000E-01   4.000000E-01   4.000000E-01   4.000000E-01   4.000000E-01   4.000000E-01   4.000000E-01   4.000000E-01   4.000000E-01   4.000000E-01   4.000000E-01   4.000000E-01   4.000000E-01   4.000000E-01   4.000000E-01   4.000000E-01   4.000000E-01   4.000000E-01   4.000000E-01   4.000000E-01   4.000000E-01   4.000000E-01   4.000000E-01   4.000000E-01   4.000000E-01   4.000000E-01   4.000000E-01   4.000000E-01   4.000000E-01   4.000000E-01   4.000000E-01   4.000000E-01   4.000000E-01   4.000000E-01   4.000000E-01   4.000000E-01   4.000000E-01   4.000000E-01   4.000000E-01   4.000000E-01   4.000000E-01   4.000000E-01   4.000000E-01   4.000000E-01   4.000000E-01   4.000000E-01   4.000000E-01   4.000000E-01   4.000000E-01   4.000000E-01   4.000000E-01   4.000000E-01   4.000000E-01   4.000000E-01   4.000000E-01   4.000000E-01   4.000000E-01   4.000000E-01   4.000000E-01   4.000000E-01   4.000000E-01   4.000000E-01   4.000000E-01   4.000000E-01   4.000000E-01   4.000000E-01   4.000000E-01   4.000000E-01   4.000000E-01   4.000000E-01   4.000000E-01   4.000000E-01   4.000000E-01   4.000000E-01   4.000000E-01   4.000000E-01   4.000000E-01   4.000000E-01   4.000000E-01   4.000000E-01   4.000000E-01   4.000000E-01   4.000000E-01   4.000000E-01   4.000000E-01   4.000000E-01   4.000000E-01   4.000000E-01   4.000000E-01   4.000000E-01   4.000000E-01   4.000000E-01   4.000000E-01   4.000000E-01   4.000000E-01   4.000000E-01   4.000000E-01   4.000000E-01   4.000000E-01   4.000000E-01   4.000000E-01   4.000000E-01   4.000000E-01   4.000000E-01   4.000000E-01   4.000000E-01   4.000000E-01   4.000000E-01   4.000000E-01   4.000000E-01   4.000000E-01   4.000000E-01   4.000000E-01   4.000000E-01   4.000000E-01   4.000000E-01   4.000000E-01   4.000000E-01   4.000000E-01   4.000000E-01   4.000000E-01   4.000000E-01   4.000000E-01   4.000000E-01   4.000000E-01   4.000000E-01   4.000000E-01   4.000000E-01   4.000000E-01   4.000000E-01   4.000000E-01   4.000000E-01   4.000000E-01   4.000000E-01   4.000000E-01   4.000000E-01   4.000000E-01   4.000000E-01   4.000000E-01   4.000000E-01   4.000000E-01   4.000000E-01   4.000000E-01   4.000000E-01   4.000000E-01   4.000000E-01   4.000000E-01   4.000000E-01   4.000000E-01   4.000000E-01   4.000000E-01   4.000000E-01   4.000000E-01   4.000000E-01   4.000000E-01   4.000000E-01   4.000000E-01   4.000000E-01   4.000000E-01   4.000000E-01   4.000000E-01   4.000000E-01   4.000000E-01   4.000000E-01   4.000000E-01   4.000000E-01   4.000000E-01   4.000000E-01   4.000000E-01   4.000000E-01   4.000000E-01   4.000000E-01   4.000000E-01   4.000000E-01   4.000000E-01   4.000000E-01   4.000000E-01   4.000000E-01   4.000000E-01   4.000000E-01   4.000000E-01   4.000000E-01   4.000000E-01   4.000000E-01   4.000000E-01   4.000000E-01   4.000000E-01   4.000000E-01   4.000000E-01   4.000000E-01   4.000000E-01   4.000000E-01   4.000000E-01   4.000000E-01   4.000000E-01   4.000000E-01   4.000000E-01   4.000000E-01   4.000000E-01   4.000000E-01   4.000000E-01   4.000000E-01   4.000000E-01   4.000000E-01   4.000000E-01   4.000000E-01   4.000000E-01   4.000000E-01   4.000000E-01   4.000000E-01   4.000000E-01   4.000000E-01   4.000000E-01   4.000000E-01   4.000000E-01   4.000000E-01   4.000000E-01   4.000000E-01   4.000000E-01   4.000000E-01   4.000000E-01   4.000000E-01   4.000000E-01   4.000000E-01   4.000000E-01   4.000000E-01   4.000000E-01   4.000000E-01   4.000000E-01   4.000000E-01   4.000000E-01   4.000000E-01   4.000000E-01   4.000000E-01   4.000000E-01   4.000000E-01   4.000000E-01   4.000000E-01   4.000000E-01   4.000000E-01   4.000000E-01   4.000000E-01   4.000000E-01   4.000000E-01   4.000000E-01   4.000000E-01   4.000000E-01   4.000000E-01   4.000000E-01   4.000000E-01   4.000000E-01   4.000000E-01   4.000000E-01   4.000000E-01   4.000000E-01   4.000000E-01   4.000000E-01   4.000000E-01   4.000000E-01   4.000000E-01   4.000000E-01   4.000000E-01   4.000000E-01   4.000000E-01   4.000000E-01   4.000000E-01   4.000000E-01   4.000000E-01   4.000000E-01   4.000000E-01   4.000000E-01   4.000000E-01   4.000000E-01   4.000000E-01   4.000000E-01   4.000000E-01   4.000000E-01   4.000000E-01   4.000000E-01   4.000000E-01   4.000000E-01   4.000000E-01   4.000000E-01   4.000000E-01   4.000000E-01   4.000000E-01   4.000000E-01   4.000000E-01   4.000000E-01   4.000000E-01   4.000000E-01   4.000000E-01   4.000000E-01   4.000000E-01   4.000000E-01   4.000000E-01   4.000000E-01   4.000000E-01   4.000000E-01   4.000000E-01   4.000000E-01   4.000000E-01   4.000000E-01   4.000000E-01   4.000000E-01   4.000000E-01   4.000000E-01   4.000000E-01   4.000000E-01   4.000000E-01   4.000000E-01   4.000000E-01   4.000000E-01   4.000000E-01   4.000000E-01   4.000000E-01   4.000000E-01   4.000000E-01   4.000000E-01   4.000000E-01   4.000000E-01   4.000000E-01   4.000000E-01   4.000000E-01   4.000000E-01   4.000000E-01   4.000000E-01   4.000000E-01   4.000000E-01   4.000000E-01   4.000000E-01   4.000000E-01   4.000000E-01   4.000000E-01   4.000000E-01   4.000000E-01   4.000000E-01   4.000000E-01   4.000000E-01   4.000000E-01   4.000000E-01   4.000000E-01   4.000000E-01   4.000000E-01   4.000000E-01   4.000000E-01   4.000000E-01   4.000000E-01   4.000000E-01   4.000000E-01   4.000000E-01   4.000000E-01   4.000000E-01   4.000000E-01   4.000000E-01   4.000000E-01   4.000000E-01   4.000000E-01   4.000000E-01   4.000000E-01   4.000000E-01   4.000000E-01   4.000000E-01   4.000000E-01   4.000000E-01   4.000000E-01   4.000000E-01   4.000000E-01   4.000000E-01   4.000000E-01   4.000000E-01   4.000000E-01   4.000000E-01   4.000000E-01   4.000000E-01   4.000000E-01   4.000000E-01   4.000000E-01   4.000000E-01   4.000000E-01   4.000000E-01   4.000000E-01   4.000000E-01   4.000000E-01   4.000000E-01   4.000000E-01   4.000000E-01   4.000000E-01   4.000000E-01   4.000000E-01   4.000000E-01   4.000000E-01   4.000000E-01   4.000000E-01   4.000000E-01   4.000000E-01   4.000000E-01   4.000000E-01   4.000000E-01   4.000000E-01   4.000000E-01   4.000000E-01   4.000000E-01   4.000000E-01   4.000000E-01   4.000000E-01   4.000000E-01   4.000000E-01   4.000000E-01   4.000000E-01   4.000000E-01   4.000000E-01   4.000000E-01   4.000000E-01   4.000000E-01   4.000000E-01   4.000000E-01   4.000000E-01   4.000000E-01   4.000000E-01   4.000000E-01   4.000000E-01   4.000000E-01   4.000000E-01   4.000000E-01   4.000000E-01   4.000000E-01   4.000000E-01   4.000000E-01   4.000000E-01   4.000000E-01   4.000000E-01   4.000000E-01   4.000000E-01   4.000000E-01   4.000000E-01   4.000000E-01   4.000000E-01   4.000000E-01   4.000000E-01   4.000000E-01   4.000000E-01   4.000000E-01   4.000000E-01   4.000000E-01   4.000000E-01   4.000000E-01   4.000000E-01   4.000000E-01   4.000000E-01   4.000000E-01   4.000000E-01   4.000000E-01   4.000000E-01   4.000000E-01   4.000000E-01   4.000000E-01   4.000000E-01   4.000000E-01   4.000000E-01   4.000000E-01   4.000000E-01   4.000000E-01   4.000000E-01   4.000000E-01   4.000000E-01   4.000000E-01   4.000000E-01   4.000000E-01   4.000000E-01   4.000000E-01   4.000000E-01   4.000000E-01   4.000000E-01   4.000000E-01   4.000000E-01   4.000000E-01   4.000000E-01   4.000000E-01   4.000000E-01   4.000000E-01   4.000000E-01   4.000000E-01   4.000000E-01   4.000000E-01   4.000000E-01   4.000000E-01   4.000000E-01   4.000000E-01   4.000000E-01   4.000000E-01   4.000000E-01   4.000000E-01   4.000000E-01   4.000000E-01   4.000000E-01   4.000000E-01   4.000000E-01   4.000000E-01   4.000000E-01   4.000000E-01   4.000000E-01   4.000000E-01   4.000000E-01   4.000000E-01   4.000000E-01   4.000000E-01   4.000000E-01   4.000000E-01   4.000000E-01   4.000000E-01   4.000000E-01   4.000000E-01   4.000000E-01   4.000000E-01   4.000000E-01   4.000000E-01   4.000000E-01   4.000000E-01   4.000000E-01   4.000000E-01   4.000000E-01   4.000000E-01   4.000000E-01   4.000000E-01   4.000000E-01   4.000000E-01   4.000000E-01   4.000000E-01   4.000000E-01   4.000000E-01   4.000000E-01   4.000000E-01   4.000000E-01   4.000000E-01   4.000000E-01   4.000000E-01   4.000000E-01   4.000000E-01   4.000000E-01   4.000000E-01   4.000000E-01   4.000000E-01   4.000000E-01   4.000000E-01   4.000000E-01   4.000000E-01   4.000000E-01   4.000000E-01   4.000000E-01   4.000000E-01   4.000000E-01   4.000000E-01   4.000000E-01   4.000000E-01   4.000000E-01   4.000000E-01   4.000000E-01   4.000000E-01   4.000000E-01   4.000000E-01   4.000000E-01   4.000000E-01   4.000000E-01   4.000000E-01   4.000000E-01   4.000000E-01   4.000000E-01   4.000000E-01   4.000000E-01   4.000000E-01   4.000000E-01   4.000000E-01   4.000000E-01   4.000000E-01   4.000000E-01   4.000000E-01   4.000000E-01   4.000000E-01   4.000000E-01   4.000000E-01   4.000000E-01   4.000000E-01   4.000000E-01   4.000000E-01   4.000000E-01   4.000000E-01   4.000000E-01   4.000000E-01   4.000000E-01   4.000000E-01   4.000000E-01   4.000000E-01   4.000000E-01   4.000000E-01   4.000000E-01   4.000000E-01   4.000000E-01   4.000000E-01   4.000000E-01   4.000000E-01   4.000000E-01   4.000000E-01   4.000000E-01   4.000000E-01   4.000000E-01   4.000000E-01   4.000000E-01   4.000000E-01   4.000000E-01   4.000000E-01   4.000000E-01   4.000000E-01   4.000000E-01   4.000000E-01   4.000000E-01   4.000000E-01   4.000000E-01   4.000000E-01   4.000000E-01   4.000000E-01   4.000000E-01   4.000000E-01   4.000000E-01   4.000000E-01   4.000000E-01   4.000000E-01   4.000000E-01   4.000000E-01   4.000000E-01   4.000000E-01   4.000000E-01   4.000000E-01   4.000000E-01   4.000000E-01   4.000000E-01   4.000000E-01   4.000000E-01   4.000000E-01   4.000000E-01   4.000000E-01   4.000000E-01   4.000000E-01   4.000000E-01   4.000000E-01   4.000000E-01   4.000000E-01   4.000000E-01   4.000000E-01   4.000000E-01   4.000000E-01   4.000000E-01   4.000000E-01   4.000000E-01   4.000000E-01   4.000000E-01   4.000000E-01   4.000000E-01   4.000000E-01   4.000000E-01   4.000000E-01   4.000000E-01   4.000000E-01   4.000000E-01   4.000000E-01   4.000000E-01   4.000000E-01   4.000000E-01   4.000000E-01   4.000000E-01   4.000000E-01   4.000000E-01   4.000000E-01   4.000000E-01   4.000000E-01   4.000000E-01   4.000000E-01   4.000000E-01   4.000000E-01   4.000000E-01   4.000000E-01   4.000000E-01   4.000000E-01   4.000000E-01   4.000000E-01   4.000000E-01   4.000000E-01   4.000000E-01   4.000000E-01   4.000000E-01   4.000000E-01   4.000000E-01   4.000000E-01   4.000000E-01   4.000000E-01   4.000000E-01   4.000000E-01   4.000000E-01   4.000000E-01   4.000000E-01   4.000000E-01   4.000000E-01   4.000000E-01   4.000000E-01   4.000000E-01   4.000000E-01   4.000000E-01   4.000000E-01   4.000000E-01   4.000000E-01   4.000000E-01   4.000000E-01   4.000000E-01   4.000000E-01   4.000000E-01   4.000000E-01   4.000000E-01   4.000000E-01   4.000000E-01   4.000000E-01   4.000000E-01   4.000000E-01   4.000000E-01   4.000000E-01   4.000000E-01   4.000000E-01   4.000000E-01   4.000000E-01   4.000000E-01   4.000000E-01   4.000000E-01   4.000000E-01   4.000000E-01   4.000000E-01   4.000000E-01   4.000000E-01   4.000000E-01   4.000000E-01   4.000000E-01   4.000000E-01   4.000000E-01   4.000000E-01   4.000000E-01   4.000000E-01   4.000000E-01   4.000000E-01   4.000000E-01   4.000000E-01   4.000000E-01   4.000000E-01   4.000000E-01   4.000000E-01   4.000000E-01   4.000000E-01   4.000000E-01   4.000000E-01   4.000000E-01   4.000000E-01   4.000000E-01   4.000000E-01   4.000000E-01   4.000000E-01   4.000000E-01   4.000000E-01   4.000000E-01   4.000000E-01   4.000000E-01   4.000000E-01   4.000000E-01   4.000000E-01   4.000000E-01   4.000000E-01   4.000000E-01   4.000000E-01   4.000000E-01   4.000000E-01   4.000000E-01   4.000000E-01   4.000000E-01   4.000000E-01   4.000000E-01   4.000000E-01   4.000000E-01   4.000000E-01   4.000000E-01   4.000000E-01   4.000000E-01   4.000000E-01   4.000000E-01   4.000000E-01   4.000000E-01   4.000000E-01   4.000000E-01   4.000000E-01   4.000000E-01   4.000000E-01   4.000000E-01   4.000000E-01   4.000000E-01   4.000000E-01   4.000000E-01   4.000000E-01   4.000000E-01   4.000000E-01   4.000000E-01   4.000000E-01   4.000000E-01   4.000000E-01   4.000000E-01   4.000000E-01   4.000000E-01   4.000000E-01   4.000000E-01   4.000000E-01   4.000000E-01   4.000000E-01   4.000000E-01   4.000000E-01   4.000000E-01   4.000000E-01   4.000000E-01   4.000000E-01   4.000000E-01   4.000000E-01   4.000000E-01   4.000000E-01   4.000000E-01   4.000000E-01   4.000000E-01   4.000000E-01   4.000000E-01   4.000000E-01   4.000000E-01   4.000000E-01   4.000000E-01   4.000000E-01   4.000000E-01   4.000000E-01   4.000000E-01   4.000000E-01   4.000000E-01   4.000000E-01   4.000000E-01   4.000000E-01   4.000000E-01   4.000000E-01   4.000000E-01   4.000000E-01   4.000000E-01   4.000000E-01   4.000000E-01   4.000000E-01   4.000000E-01   4.000000E-01   4.000000E-01   4.000000E-01   4.000000E-01   4.000000E-01   4.000000E-01   4.000000E-01   4.000000E-01   4.000000E-01   4.000000E-01   4.000000E-01   4.000000E-01   4.000000E-01   4.000000E-01   4.000000E-01   4.000000E-01   4.000000E-01   4.000000E-01   4.000000E-01   4.000000E-01   4.000000E-01   4.000000E-01   4.000000E-01   4.000000E-01   4.000000E-01   4.000000E-01   4.000000E-01   4.000000E-01   4.000000E-01   4.000000E-01   4.000000E-01   4.000000E-01   4.000000E-01   4.000000E-01   4.000000E-01   4.000000E-01   4.000000E-01   4.000000E-01   4.000000E-01   4.000000E-01   4.000000E-01   4.000000E-01   4.000000E-01   4.000000E-01   4.000000E-01   4.000000E-01   4.000000E-01   4.000000E-01   4.000000E-01   4.000000E-01   4.000000E-01   4.000000E-01   4.000000E-01   4.000000E-01   4.000000E-01   4.000000E-01   4.000000E-01   4.000000E-01   4.000000E-01   4.000000E-01   4.000000E-01   4.000000E-01   4.000000E-01   4.000000E-01   4.000000E-01   4.000000E-01   4.000000E-01   4.000000E-01   4.000000E-01   4.000000E-01   4.000000E-01   4.000000E-01   4.000000E-01   4.000000E-01   4.000000E-01   4.000000E-01   4.000000E-01   4.000000E-01   4.000000E-01   4.000000E-01   4.000000E-01   4.000000E-01   4.000000E-01   4.000000E-01   4.000000E-01   4.000000E-01   4.000000E-01   4.000000E-01   4.000000E-01   4.000000E-01   4.000000E-01   4.000000E-01   4.000000E-01   4.000000E-01   4.000000E-01   4.000000E-01   4.000000E-01   4.000000E-01   4.000000E-01   4.000000E-01   4.000000E-01   4.000000E-01   4.000000E-01   4.000000E-01   4.000000E-01   4.000000E-01   4.000000E-01   4.000000E-01   4.000000E-01   4.000000E-01   4.000000E-01   4.000000E-01   4.000000E-01   4.000000E-01   4.000000E-01   4.000000E-01   4.000000E-01   4.000000E-01   4.000000E-01   4.000000E-01   4.000000E-01   4.000000E-01   4.000000E-01   4.000000E-01   4.000000E-01   4.000000E-01   4.000000E-01   4.000000E-01   4.000000E-01   4.000000E-01   4.000000E-01   4.000000E-01   4.000000E-01   4.000000E-01   4.000000E-01   4.000000E-01   4.000000E-01   4.000000E-01   4.000000E-01   4.000000E-01   4.000000E-01   4.000000E-01   4.000000E-01   4.000000E-01   4.000000E-01   4.000000E-01   4.000000E-01   4.000000E-01   4.000000E-01   4.000000E-01   4.000000E-01   4.000000E-01   4.000000E-01   4.000000E-01   4.000000E-01   4.000000E-01   4.000000E-01   4.000000E-01   4.000000E-01   4.000000E-01   4.000000E-01   4.000000E-01   4.000000E-01   4.000000E-01   4.000000E-01   4.000000E-01   4.000000E-01   4.000000E-01   4.000000E-01   4.000000E-01   4.000000E-01   4.000000E-01   4.000000E-01   4.000000E-01   4.000000E-01   4.000000E-01   4.000000E-01   4.000000E-01   4.000000E-01   4.000000E-01   4.000000E-01   4.000000E-01   4.000000E-01   4.000000E-01   4.000000E-01   4.000000E-01   4.000000E-01   4.000000E-01   4.000000E-01   4.000000E-01   4.000000E-01   4.000000E-01   4.000000E-01   4.000000E-01   4.000000E-01   4.000000E-01   4.000000E-01   4.000000E-01   4.000000E-01   4.000000E-01   4.000000E-01   4.000000E-01   4.000000E-01   4.000000E-01   4.000000E-01   4.000000E-01   4.000000E-01   4.000000E-01   4.000000E-01   4.000000E-01   4.000000E-01   4.000000E-01   4.000000E-01   4.000000E-01   4.000000E-01   4.000000E-01   4.000000E-01   4.000000E-01   4.000000E-01   4.000000E-01   4.000000E-01   4.000000E-01   4.000000E-01   4.000000E-01   4.000000E-01   4.000000E-01   4.000000E-01   4.000000E-01   4.000000E-01   4.000000E-01   4.000000E-01   4.000000E-01   4.000000E-01   4.000000E-01   4.000000E-01   4.000000E-01   4.000000E-01   4.000000E-01   4.000000E-01   4.000000E-01   4.000000E-01   4.000000E-01   4.000000E-01   4.000000E-01   4.000000E-01   4.000000E-01   4.000000E-01   4.000000E-01   4.000000E-01   4.000000E-01   4.000000E-01   4.000000E-01   4.000000E-01   4.000000E-01   4.000000E-01   4.000000E-01   4.000000E-01   4.000000E-01   4.000000E-01   4.000000E-01   4.000000E-01   4.000000E-01   4.000000E-01   4.000000E-01   4.000000E-01   4.000000E-01   4.000000E-01   4.000000E-01   4.000000E-01   4.000000E-01   4.000000E-01   4.000000E-01   4.000000E-01   4.000000E-01   4.000000E-01   4.000000E-01   4.000000E-01   4.000000E-01   4.000000E-01   4.000000E-01   4.000000E-01   4.000000E-01   4.000000E-01   4.000000E-01   4.000000E-01   4.000000E-01   4.000000E-01   4.000000E-01   4.000000E-01   4.000000E-01   4.000000E-01   4.000000E-01   4.000000E-01   4.000000E-01   4.000000E-01   4.000000E-01   4.000000E-01   4.000000E-01   4.000000E-01   4.000000E-01   4.000000E-01   4.000000E-01   4.000000E-01   4.000000E-01   4.000000E-01   4.000000E-01   4.000000E-01   4.000000E-01   4.000000E-01   4.000000E-01   4.000000E-01   4.000000E-01   4.000000E-01   4.000000E-01   4.000000E-01   