<?xml version="1.0"?>
<!-- Time =  1.0005582926947696E+00s -->
<VTKFile type="PolyData" version="0.1" byte_order="LittleEndian">
<PolyData>
<Piece NumberOfPoints="0000028800" NumberOfVerts="0" NumberOfLines="0" NumberOfStrips="0" NumberOfPolys="0">
<Points>
<DataArray type="Float32" Name="Position" NumberOfComponents="3" format="ascii">
  8.700267E-01   1.967020E-01   6.141772E-01   1.352357E+00   1.980958E-01   4.756843E-01   2.244633E+00   1.974472E-01   1.999276E-01   4.122781E+00   1.990758E-01   2.006771E-01   4.862247E+00   1.985150E-01   5.084943E-01   6.255819E+00   1.117712E+01   3.530164E+00   4.792141E+00   1.357480E+01   1.128510E+00   3.372100E+00   9.694920E+00   8.918946E-01   2.524590E+00   9.586798E+00   1.250988E+00   1.983051E+00   6.381220E+00   8.070924E-01   2.013244E-01   8.594742E+00   3.004651E+00   2.879953E+00   7.440205E+00   5.531934E-01   9.268986E-01   8.313877E+00   5.752482E-01   9.688409E-01   7.875815E+00   2.293908E+00   5.721708E+00   9.151336E+00   2.058155E-01   1.331101E+01   7.072945E+00   4.404963E+00   1.314413E+01   7.204336E+00   3.034589E+00   5.108193E-01   6.669461E+00   4.927932E+00   1.293947E+01   6.216205E+00   1.836429E+00   3.941539E+00   6.630720E+00   4.517438E+00   3.482084E+00   9.182178E+00   2.170732E+00   3.828257E+00   8.202012E+00   2.190679E+00   1.010362E+01   1.258114E+01   1.140193E+00   7.207644E+00   1.760362E+01   2.106532E+00   1.101389E+01   1.989603E-01   6.388246E-01   1.242213E+01   1.989834E-01   1.995233E-01   1.263416E+01   1.996254E-01   5.459003E-01   1.344103E+01   1.981661E-01   5.272894E-01   1.391575E+01   1.981936E-01   9.843809E-01   2.644223E-01   1.953903E-01   1.040570E+00   1.181642E+00   1.997783E-01   9.652883E-01   2.666354E+00   1.997737E-01   1.288608E+00   3.017763E+00   1.988069E-01   9.097069E-01   3.621722E+00   1.997562E-01   8.236451E-01   5.213250E+00   1.990179E-01   1.143955E+00   6.672989E+00   1.446410E+01   1.927705E+00   5.255962E+00   1.375681E+01   2.756437E+00   5.750556E+00   1.316276E+01   3.841378E-01   5.727055E+00   8.386572E+00   9.519988E-01   4.377617E+00   8.349289E+00   1.800379E+00   5.434462E-01   5.851718E+00   3.479567E+00   6.399304E-01   7.346753E+00   4.635835E+00   9.527862E-01   8.131960E+00   3.428363E+00   8.588141E+00   9.174591E+00   2.056530E-01   7.551889E-01   8.812329E+00   5.428529E-01   5.842649E-01   7.873306E+00   2.956602E+00   2.921482E+00   8.272866E+00   9.992802E-01   1.330240E+01   6.881613E+00   2.859813E+00   1.698555E+00   7.767950E+00   2.345464E+00   1.337275E+01   5.394913E+00   4.072523E+00   3.744780E+00   6.079283E+00   3.140881E+00   8.976686E+00   1.273583E+01   3.904274E-01   9.423356E+00   9.778669E+00   5.968885E-01   7.911185E+00   1.197450E+01   3.131544E+00   7.995354E+00   6.074796E+00   2.442057E+00   1.101705E+01   1.976441E-01   1.087057E+00   1.277489E+01   1.949819E-01   9.193256E-01   1.324113E+01   1.989084E-01   8.721286E-01   1.381934E+01   3.232520E-01   5.552171E-01   1.466553E+01   1.988924E-01   5.727532E-01   1.987723E-01   1.969203E-01   6.155050E-01   1.966729E+00   1.954800E-01   9.063224E-01   2.460219E+00   1.986384E-01   5.368167E-01   3.096862E+00   1.980325E-01   2.008000E-01   3.331158E+00   1.960609E-01   5.279560E-01   7.235014E+00   1.895761E+00   9.154045E-01   2.614299E+00   1.433976E+01   4.200903E-01   4.222363E+00   8.301682E+00   2.258464E+00   1.987858E-01   7.400695E+00   6.617593E-01   2.893169E+00   6.669035E+00   4.400677E+00   3.512143E+00   6.399617E+00   3.196186E+00   1.070963E+00   6.374969E+00   2.995907E+00   3.789577E+00   6.156566E+00   4.358350E+00   1.558632E+00   8.577164E+00   9.226202E-01   1.514329E+00   6.141497E+00   4.598320E+00   1.254049E+00   6.557212E+00   3.321093E+00   2.012773E+00   8.361825E+00   1.996668E-01   9.897464E-01   7.479917E+00   3.152086E+00   1.055812E+01   6.607774E+00   4.173260E+00   1.060492E+01   6.267652E+00   2.493655E+00   1.452604E+00   7.927044E+00   2.070574E+00   5.532740E+00   9.112107E+00   1.565868E+00   9.618537E+00   8.115816E+00   1.627170E+00   1.114651E+01   1.454958E+01   1.420435E+00   7.713024E+00   3.985316E+00   1.403333E+00   9.555295E+00   1.972294E-01   6.487567E-01   1.160337E+01   1.991178E-01   1.994912E-01   1.183615E+01   1.970433E-01   5.676695E-01   1.321283E+01   1.978766E-01   1.994436E-01   1.419650E+01   1.923229E-01   5.535015E-01   1.999959E-01   1.999223E-01   2.137270E-01   6.650625E-01   1.973078E-01   2.079502E-01   1.637454E+00   1.970448E-01   1.969988E-01   2.667479E+00   2.507012E-01   1.992813E-01   3.598528E+00   1.996199E-01   2.002192E-01   5.235314E+00   1.962263E-01   2.062822E-01   7.533913E+00   1.762241E+01   3.970616E+00   3.884086E+00   9.058084E+00   5.590053E-01   1.287645E+01   9.052945E+00   2.159431E+00   1.404359E+01   6.647676E+00   5.368463E-01   9.106277E+00   7.820277E+00   1.420990E+00   4.972102E+00   7.594218E+00   5.723329E-01   4.192758E+00   8.272902E+00   7.836851E-01   7.346905E-01   6.907310E+00   4.671681E+00   2.608520E+00   7.739268E+00   2.830277E+00   3.361607E+00   6.033113E+00   3.245361E+00   1.353736E+01   5.980482E+00   2.449491E+00   1.277161E+01   7.967978E+00   3.984244E+00   1.480032E+01   6.318970E+00   2.766416E+00   1.146471E+01   6.560405E+00   3.534141E+00   3.222879E+00   5.868439E+00   4.403984E+00   1.190145E+01   6.234396E+00   2.094009E+00   9.372452E+00   7.142010E+00   3.041482E+00   7.887017E+00   7.891310E+00   2.035569E-01   1.055813E+01   9.701114E+00   3.161316E+00   8.426886E+00   1.744227E+01   2.250817E+00   9.160459E+00   1.990892E-01   2.000151E-01   1.074612E+01   1.998777E-01   2.000668E-01   1.200314E+01   1.956075E-01   1.999316E-01   1.281923E+01   2.673419E-01   1.990488E-01   1.401773E+01   1.964593E-01   1.980193E-01   1.480050E+01   1.963687E-01   1.969409E-01   1.148388E+00   4.746281E-01   6.766520E-01   1.063876E+00   1.976389E-01   1.992129E-01   2.085010E+00   3.333530E-01   5.507834E-01   2.877876E+00   1.999219E-01   5.353433E-01   5.873747E+00   1.997805E-01   6.433840E-01   7.105051E+00   5.384444E+00   2.206660E+00   5.914715E+00   1.427058E+01   1.414906E+00   1.034077E+01   8.987713E+00   8.183315E-01   1.177013E+01   9.456996E+00   3.838961E+00   1.255289E+01   5.745184E+00   2.834346E+00   1.340761E+00   7.982566E+00   2.006892E-01   1.096668E+00   7.702191E+00   1.342877E+00   2.285573E+00   9.013376E+00   9.240508E-01   9.406481E-01   7.567946E+00   2.548421E+00   1.054538E+00   7.439060E+00   4.698039E+00   1.416899E+01   6.826918E+00   3.210180E+00   1.610770E+00   7.461267E+00   2.618373E+00   1.361941E+01   7.153894E+00   2.771751E+00   1.393770E+01   7.296517E+00   2.988647E+00   9.210814E+00   7.009063E+00   3.455738E+00   4.018550E+00   6.817327E+00   2.000526E-01   8.922953E+00   1.013403E+01   1.368068E+00   6.170246E+00   1.024109E+01   9.910431E-01   1.252466E+01   9.864498E+00   6.580219E-01   6.609295E+00   1.580682E+01   1.908336E+00   7.017391E+00   4.934517E+00   1.999823E+00   1.038763E+01   1.993865E-01   6.022246E-01   1.237623E+01   1.962230E-01   9.261077E-01   1.363626E+01   3.152990E-01   1.993646E-01   1.440914E+01   2.777682E-01   2.099432E-01   2.251119E-01   5.604846E-01   8.907396E-01   5.348987E-01   3.329760E-01   7.811926E-01   1.562510E+00   1.958468E-01   8.156829E-01   3.321374E+00   4.569900E-01   8.831378E-01   3.887307E+00   1.990935E-01   5.245295E-01   7.009493E+00   4.317233E+00   1.972023E+00   3.838699E+00   1.671269E+01   3.329301E+00   3.783731E+00   9.301887E+00   1.454777E+00   1.176948E+01   9.778879E+00   2.968069E+00   1.224551E+00   6.721310E+00   1.991892E-01   2.343414E+00   5.901434E+00   5.206714E-01   1.636240E+00   7.098438E+00   2.452411E+00   8.842189E-01   8.039239E+00   1.355702E+00   6.076622E-01   9.774044E+00   2.006113E-01   1.729595E+00   7.764672E+00   2.000639E-01   2.000280E-01   8.296415E+00   1.564699E+00   1.424625E+01   7.014670E+00   5.072068E-01   1.374718E+01   6.068852E+00   3.642837E+00   1.322276E+01   6.199157E+00   4.740494E+00   9.707522E-01   6.505719E+00   4.052655E+00   8.950334E+00   6.394326E+00   2.988163E-01   2.361209E+00   5.840152E+00   3.161249E+00   4.326554E+00   8.004196E+00   1.995323E+00   1.234306E+01   8.748121E+00   2.361828E+00   7.023983E+00   1.372411E+01   5.141079E-01   9.457128E+00   1.336001E+01   8.514897E-01   8.913904E+00   2.001613E-01   9.557251E-01   1.067583E+01   1.994668E-01   8.790939E-01   1.442432E+01   5.159387E-01   5.538853E-01   1.426877E+01   4.799654E-01   1.159474E+00   1.463172E+01   8.531195E-01   5.691731E-01   8.851264E-01   5.105467E-01   3.693819E-01   1.339092E+00   4.859754E-01   1.993218E-01   1.697104E+00   4.229526E-01   5.184266E-01   3.346272E+00   5.098290E-01   1.996976E-01   4.609702E+00   1.984874E-01   1.994174E-01   5.880584E+00   1.994290E-01   1.995929E-01   6.057097E+00   1.582303E+01   2.635149E+00   7.298726E+00   1.000052E+01   1.133851E+00   3.524521E+00   5.800665E+00   3.525575E+00   1.400173E+01   6.950656E+00   1.989633E-01   1.153956E+00   7.108209E+00   1.498012E+00   2.550889E+00   6.544274E+00   4.230793E+00   5.700305E-01   7.962172E+00   4.341711E+00   2.380355E+00   6.073203E+00   3.488835E+00   1.386617E+01   6.904504E+00   2.962701E+00   1.430485E+01   7.406956E+00   5.441058E-01   1.397530E+01   7.512002E+00   1.578543E+00   2.121118E-01   6.820107E+00   2.811376E+00   1.346354E+01   5.787942E+00   3.622430E+00   2.060242E+00   6.125979E+00   1.912071E+00   1.247893E+01   6.051578E+00   3.080150E+00   1.139701E+01   9.217164E+00   6.198109E-01   1.061139E+01   9.592322E+00   2.175224E+00   2.625625E+00   8.676040E+00   2.253249E+00   6.572887E+00   1.679912E+01   3.892876E+00   9.944892E+00   1.986752E-01   2.001889E-01   1.034484E+01   2.024616E-01   2.045172E-01   1.352072E+01   5.884166E-01   5.384650E-01   1.407084E+01   5.896158E-01   1.993752E-01   1.480104E+01   5.411099E-01   3.907614E-01   4.627419E-01   5.388036E-01   1.990400E-01   7.287719E-01   8.357316E-01  
[...]
<PointData Scalars="Diameter" Vectors="Velocity">
<DataArray type="Float32" Name="Diameter" format="ascii">
  4.000000E-01   4.000000E-01   4.000000E-01   4.000000E-01   4.000000E-01   4.000000E-01   4.000000E-01   4.000000E-01   4.000000E-01   4.000000E-01   4.000000E-01   4.000000E-01   4.000000E-01   4.000000E-01   4.000000E-01   4.000000E-01   4.000000E-01   4.000000E-01   4.000000E-01   4.000000E-01   4.000000E-01   4.000000E-01   4.000000E-01   4.000000E-01   4.000000E-01   4.000000E-01   4.000000E-01   4.000000E-01   4.000000E-01   4.000000E-01   4.000000E-01   4.000000E-01   4.000000E-01   4.000000E-01   4.000000E-01   4.000000E-01   4.000000E-01   4.000000E-01   4.000000E-01   4.000000E-01   4.000000E-01   4.000000E-01   4.000000E-01   4.000000E-01   4.000000E-01   4.000000E-01   4.000000E-01   4.000000E-01   4.000000E-01   4.000000E-01   4.000000E-01   4.000000E-01   4.000000E-01   4.000000E-01   4.000000E-01   4.000000E-01   4.000000E-01   4.000000E-01   4.000000E-01   4.000000E-01   4.000000E-01   4.000000E-01   4.000000E-01   4.000000E-01   4.000000E-01   4.000000E-01   4.000000E-01   4.000000E-01   4.000000E-01   4.000000E-01   4.000000E-01   4.000000E-01   4.000000E-01   4.000000E-01   4.000000E-01   4.000000E-01   4.000000E-01   4.000000E-01   4.000000E-01   4.000000E-01   4.000000E-01   4.000000E-01   4.000000E-01   4.000000E-01   4.000000E-01   4.000000E-01   4.000000E-01   4.000000E-01   4.000000E-01   4.000000E-01   4.000000E-01   4.000000E-01   4.000000E-01   4.000000E-01   4.000000E-01   4.000000E-01   4.000000E-01   4.000000E-01   4.000000E-01   4.000000E-01   4.000000E-01   4.000000E-01   4.000000E-01   4.000000E-01   4.000000E-01   4.000000E-01   4.000000E-01   4.000000E-01   4.000000E-01   4.000000E-01   4.000000E-01   4.000000E-01   4.000000E-01   4.000000E-01   4.000000E-01   4.000000E-01   4.000000E-01   4.000000E-01   4.000000E-01   4.000000E-01   4.000000E-01   4.000000E-01   4.000000E-01   4.000000E-01   4.000000E-01   4.000000E-01   4.000000E-01   4.000000E-01   4.000000E-01   4.000000E-01   4.000000E-01   4.000000E-01   4.000000E-01   4.000000E-01   4.000000E-01   4.000000E-01   4.000000E-01   4.000000E-01   4.000000E-01   4.000000E-01   4.000000E-01   4.000000E-01   4.000000E-01   4.000000E-01   4.000000E-01   4.000000E-01   4.000000E-01   4.000000E-01   4.000000E-01   4.000000E-01   4.000000E-01   4.000000E-01   4.000000E-01   4.000000E-01   4.000000E-01   4.000000E-01   4.000000E-01   4.000000E-01   4.000000E-01   4.000000E-01   4.000000E-01   4.000000E-01   4.000000E-01   4.000000E-01   4.000000E-01   4.000000E-01   4.000000E-01   4.000000E-01   4.000000E-01   4.000000E-01   4.000000E-01   4.000000E-01   4.000000E-01   4.000000E-01   4.000000E-01   4.000000E-01   4.000000E-01   4.000000E-01   4.000000E-01   4.000000E-01   4.000000E-01   4.000000E-01   4.000000E-01   4.000000E-01   4.000000E-01   4.000000E-01   4.000000E-01   4.000000E-01   4.000000E-01   4.000000E-01   4.000000E-01   4.000000E-01   4.000000E-01   4.000000E-01   4.000000E-01   4.000000E-01   4.000000E-01   4.000000E-01   4.000000E-01   4.000000E-01   4.000000E-01   4.000000E-01   4.000000E-01   4.000000E-01   4.000000E-01   4.000000E-01   4.000000E-01   4.000000E-01   4.000000E-01   4.000000E-01   4.000000E-01   4.000000E-01   4.000000E-01   4.000000E-01   4.000000E-01   4.000000E-01   4.000000E-01   4.000000E-01   4.000000E-01   4.000000E-01   4.000000E-01   4.000000E-01   4.000000E-01   4.000000E-01   4.000000E-01   4.000000E-01   4.000000E-01   4.000000E-01   4.000000E-01   4.000000E-01   4.000000E-01   4.000000E-01   4.000000E-01   4.000000E-01   4.000000E-01   4.000000E-01   4.000000E-01   4.000000E-01   4.000000E-01   4.000000E-01   4.000000E-01   4.000000E-01   4.000000E-01   4.000000E-01   4.000000E-01   4.000000E-01   4.000000E-01   4.000000E-01   4.000000E-01   4.000000E-01   4.000000E-01   4.000000E-01   4.000000E-01   4.000000E-01   4.000000E-01   4.000000E-01   4.000000E-01   4.000000E-01   4.000000E-01   4.000000E-01   4.000000E-01   4.000000E-01   4.000000E-01   4.000000E-01   4.000000E-01   4.000000E-01   4.000000E-01   4.000000E-01   4.000000E-01   4.000000E-01   4.000000E-01   4.000000E-01   4.000000E-01   4.000000E-01   4.000000E-01   4.000000E-01   4.000000E-01   4.000000E-01   4.000000E-01   4.000000E-01   4.000000E-01   4.000000E-01   4.000000E-01   4.000000E-01   4.000000E-01   4.000000E-01   4.000000E-01   4.000000E-01   4.000000E-01   4.000000E-01   4.000000E-01   4.000000E-01   4.000000E-01   4.000000E-01   4.000000E-01   4.000000E-01   4.000000E-01   4.000000E-01   4.000000E-01   4.000000E-01   4.000000E-01   4.000000E-01   4.000000E-01   4.000000E-01   4.000000E-01   4.000000E-01   4.000000E-01   4.000000E-01   4.000000E-01   4.000000E-01   4.000000E-01   4.000000E-01   4.000000E-01   4.000000E-01   4.000000E-01   4.000000E-01   4.000000E-01   4.000000E-01   4.000000E-01   4.000000E-01   4.000000E-01   4.000000E-01   4.000000E-01   4.000000E-01   4.000000E-01   4.000000E-01   4.000000E-01   4.000000E-01   4.000000E-01   4.000000E-01   4.000000E-01   4.000000E-01   4.000000E-01   4.000000E-01   4.000000E-01   4.000000E-01   4.000000E-01   4.000000E-01   4.000000E-01   4.000000E-01   4.000000E-01   4.000000E-01   4.000000E-01   4.000000E-01   4.000000E-01   4.000000E-01   4.000000E-01   4.000000E-01   4.000000E-01   4.000000E-01   4.000000E-01   4.000000E-01   4.000000E-01   4.000000E-01   4.000000E-01   4.000000E-01   4.000000E-01   4.000000E-01   4.000000E-01   4.000000E-01   4.000000E-01   4.000000E-01   4.000000E-01   4.000000E-01   4.000000E-01   4.000000E-01   4.000000E-01   4.000000E-01   4.000000E-01   4.000000E-01   4.000000E-01   4.000000E-01   4.000000E-01   4.000000E-01   4.000000E-01   4.000000E-01   4.000000E-01   4.000000E-01   4.000000E-01   4.000000E-01   4.000000E-01   4.000000E-01   4.000000E-01   4.000000E-01   4.000000E-01   4.000000E-01   4.000000E-01   4.000000E-01   4.000000E-01   4.000000E-01   4.000000E-01   4.000000E-01   4.000000E-01   4.000000E-01   4.000000E-01   4.000000E-01   4.000000E-01   4.000000E-01   4.000000E-01   4.000000E-01   4.000000E-01   4.000000E-01   4.000000E-01   4.000000E-01   4.000000E-01   4.000000E-01   4.000000E-01   4.000000E-01   4.000000E-01   4.000000E-01   4.000000E-01   4.000000E-01   4.000000E-01   4.000000E-01   4.000000E-01   4.000000E-01   4.000000E-01   4.000000E-01   4.000000E-01   4.000000E-01   4.000000E-01   4.000000E-01   4.000000E-01   4.000000E-01   4.000000E-01   4.000000E-01   4.000000E-01   4.000000E-01   4.000000E-01   4.000000E-01   4.000000E-01   4.000000E-01   4.000000E-01   4.000000E-01   4.000000E-01   4.000000E-01   4.000000E-01   4.000000E-01   4.000000E-01   4.000000E-01   4.000000E-01   4.000000E-01   4.000000E-01   4.000000E-01   4.000000E-01   4.000000E-01   4.000000E-01   4.000000E-01   4.000000E-01   4.000000E-01   4.000000E-01   4.000000E-01   4.000000E-01   4.000000E-01   4.000000E-01   4.000000E-01   4.000000E-01   4.000000E-01   4.000000E-01   4.000000E-01   4.000000E-01   4.000000E-01   4.000000E-01   4.000000E-01   4.000000E-01   4.000000E-01   4.000000E-01   4.000000E-01   4.000000E-01   4.000000E-01   4.000000E-01   4.000000E-01   4.000000E-01   4.000000E-01   4.000000E-01   4.000000E-01   4.000000E-01   4.000000E-01   4.000000E-01   4.000000E-01   4.000000E-01   4.000000E-01   4.000000E-01   4.000000E-01   4.000000E-01   4.000000E-01   4.000000E-01   4.000000E-01   4.000000E-01   4.000000E-01   4.000000E-01   4.000000E-01   4.000000E-01   4.000000E-01   4.000000E-01   4.000000E-01   4.000000E-01   4.000000E-01   4.000000E-01   4.000000E-01   4.000000E-01   4.000000E-01   4.000000E-01   4.000000E-01   4.000000E-01   4.000000E-01   4.000000E-01   4.000000E-01   4.000000E-01   4.000000E-01   4.000000E-01   4.000000E-01   4.000000E-01   4.000000E-01   4.000000E-01   4.000000E-01   4.000000E-01   4.000000E-01   4.000000E-01   4.000000E-01   4.000000E-01   4.000000E-01   4.000000E-01   4.000000E-01   4.000000E-01   4.000000E-01   4.000000E-01   4.000000E-01   4.000000E-01   4.000000E-01   4.000000E-01   4.000000E-01   4.000000E-01   4.000000E-01   4.000000E-01   4.000000E-01   4.000000E-01   4.000000E-01   4.000000E-01   4.000000E-01   4.000000E-01   4.000000E-01   4.000000E-01   4.000000E-01   4.000000E-01   4.000000E-01   4.000000E-01   4.000000E-01   4.000000E-01   4.000000E-01   4.000000E-01   4.000000E-01   4.000000E-01   4.000000E-01   4.000000E-01   4.000000E-01   4.000000E-01   4.000000E-01   4.000000E-01   4.000000E-01   4.000000E-01   4.000000E-01   4.000000E-01   4.000000E-01   4.000000E-01   4.000000E-01   4.000000E-01   4.000000E-01   4.000000E-01   4.000000E-01   4.000000E-01   4.000000E-01   4.000000E-01   4.000000E-01   4.000000E-01   4.000000E-01   4.000000E-01   4.000000E-01   4.000000E-01   4.000000E-01   4.000000E-01   4.000000E-01   4.000000E-01   4.000000E-01   4.000000E-01   4.000000E-01   4.000000E-01   4.000000E-01   4.000000E-01   4.000000E-01   4.000000E-01   4.000000E-01   4.000000E-01   4.000000E-01   4.000000E-01   4.000000E-01   4.000000E-01   4.000000E-01   4.000000E-01   4.000000E-01   4.000000E-01   4.000000E-01   4.000000E-01   4.000000E-01   4.000000E-01   4.000000E-01   4.000000E-01   4.000000E-01   4.000000E-01   4.000000E-01   4.000000E-01   4.000000E-01   4.000000E-01   4.000000E-01   4.000000E-01   4.000000E-01   4.000000E-01   4.000000E-01   4.000000E-01   4.000000E-01   4.000000E-01   4.000000E-01   4.000000E-01   4.000000E-01   4.000000E-01   4.000000E-01   4.000000E-01   4.000000E-01   4.000000E-01   4.000000E-01   4.000000E-01   4.000000E-01   4.000000E-01   4.000000E-01   4.000000E-01   4.000000E-01   4.000000E-01   4.000000E-01   4.000000E-01   4.000000E-01   4.000000E-01   4.000000E-01   4.000000E-01   4.000000E-01   4.000000E-01   4.000000E-01   4.000000E-01   4.000000E-01   4.000000E-01   4.000000E-01   4.000000E-01   4.000000E-01   4.000000E-01   4.000000E-01   4.000000E-01   4.000000E-01   4.000000E-01   4.000000E-01   4.000000E-01   4.000000E-01   4.000000E-01   4.000000E-01   4.000000E-01   4.000000E-01   4.000000E-01   4.000000E-01   4.000000E-01   4.000000E-01   4.000000E-01   4.000000E-01   4.000000E-01   4.000000E-01   4.000000E-01   4.000000E-01   4.000000E-01   4.000000E-01   4.000000E-01   4.000000E-01   4.000000E-01   4.000000E-01   4.000000E-01   4.000000E-01   4.000000E-01   4.000000E-01   4.000000E-01   4.000000E-01   4.000000E-01   4.000000E-01   4.000000E-01   4.000000E-01   4.000000E-01   4.000000E-01   4.000000E-01   4.000000E-01   4.000000E-01   4.000000E-01   4.000000E-01   4.000000E-01   4.000000E-01   4.000000E-01   4.000000E-01   4.000000E-01   4.000000E-01   4.000000E-01   4.000000E-01   4.000000E-01   4.000000E-01   4.000000E-01   4.000000E-01   4.000000E-01   4.000000E-01   4.000000E-01   4.000000E-01   4.000000E-01   4.000000E-01   4.000000E-01   4.000000E-01   4.000000E-01   4.000000E-01   4.000000E-01   4.000000E-01   4.000000E-01   4.000000E-01   4.000000E-01   4.000000E-01   4.000000E-01   4.000000E-01   4.000000E-01   4.000000E-01   4.000000E-01   4.000000E-01   4.000000E-01   4.000000E-01   4.000000E-01   4.000000E-01   4.000000E-01   4.000000E-01   4.000000E-01   4.000000E-01   4.000000E-01   4.000000E-01   4.000000E-01   4.000000E-01   4.000000E-01   4.000000E-01   4.000000E-01   4.000000E-01   4.000000E-01   4.000000E-01   4.000000E-01   4.000000E-01   4.000000E-01   4.000000E-01   4.000000E-01   4.000000E-01   4.000000E-01   4.000000E-01   4.000000E-01   4.000000E-01   4.000000E-01   4.000000E-01   4.000000E-01   4.000000E-01   4.000000E-01   4.000000E-01   4.000000E-01   4.000000E-01   4.000000E-01   4.000000E-01   4.000000E-01   4.000000E-01   4.000000E-01   4.000000E-01   4.000000E-01   4.000000E-01   4.000000E-01   4.000000E-01   4.000000E-01   4.000000E-01   4.000000E-01   4.000000E-01   4.000000E-01   4.000000E-01   4.000000E-01   4.000000E-01   4.000000E-01   4.000000E-01   4.000000E-01   4.000000E-01   4.000000E-01   4.000000E-01   4.000000E-01   4.000000E-01   4.000000E-01   4.000000E-01   4.000000E-01   4.000000E-01   4.000000E-01   4.000000E-01   4.000000E-01   4.000000E-01   4.000000E-01   4.000000E-01   4.000000E-01   4.000000E-01   4.000000E-01   4.000000E-01   4.000000E-01   4.000000E-01   4.000000E-01   4.000000E-01   4.000000E-01   4.000000E-01   4.000000E-01   4.000000E-01   4.000000E-01   4.000000E-01   4.000000E-01   4.000000E-01   4.000000E-01   4.000000E-01   4.000000E-01   4.000000E-01   4.000000E-01   4.000000E-01   4.000000E-01   4.000000E-01   4.000000E-01   4.000000E-01   4.000000E-01   4.000000E-01   4.000000E-01   4.000000E-01   4.000000E-01   4.000000E-01   4.000000E-01   4.000000E-01   4.000000E-01   4.000000E-01   4.000000E-01   4.000000E-01   4.000000E-01   4.000000E-01   4.000000E-01   4.000000E-01   4.000000E-01   4.000000E-01   4.000000E-01   4.000000E-01   4.000000E-01   4.000000E-01   4.000000E-01   4.000000E-01   4.000000E-01   4.000000E-01   4.000000E-01   4.000000E-01   4.000000E-01   4.000000E-01   4.000000E-01   4.000000E-01   4.000000E-01   4.000000E-01   4.000000E-01   4.000000E-01   4.000000E-01   4.000000E-01   4.000000E-01   4.000000E-01   4.000000E-01   4.000000E-01   4.000000E-01   4.000000E-01   4.000000E-01   4.000000E-01   4.000000E-01   4.000000E-01   4.000000E-01   4.000000E-01   4.000000E-01   4.000000E-01   4.000000E-01   4.000000E-01   4.000000E-01   4.000000E-01   4.000000E-01   4.000000E-01   4.000000E-01   4.000000E-01   4.000000E-01   4.000000E-01   4.000000E-01   4.000000E-01   4.000000E-01   4.000000E-01   4.000000E-01   4.000000E-01   4.000000E-01   4.000000E-01   4.000000E-01   4.000000E-01   4.000000E-01   4.000000E-01   4.000000E-01   4.000000E-01   4.000000E-01   4.000000E-01   4.000000E-01   4.000000E-01   4.000000E-01   4.000000E-01   4.000000E-01   4.000000E-01   4.000000E-01   4.000000E-01   4.000000E-01   4.000000E-01   4.000000E-01   4.000000E-01   4.000000E-01   4.000000E-01   4.000000E-01   4.000000E-01   4.000000E-01   4.000000E-01   4.000000E-01   4.000000E-01   4.000000E-01   4.000000E-01   4.000000E-01   4.000000E-01   4.000000E-01   4.000000E-01   4.000000E-01   4.000000E-01   4.000000E-01   4.000000E-01   4.000000E-01   4.000000E-01   4.000000E-01   4.000000E-01   4.000000E-01   4.000000E-01   4.000000E-01   4.000000E-01   4.000000E-01   4.000000E-01   4.000000E-01   4.000000E-01   4.000000E-01   4.000000E-01   4.000000E-01   4.000000E-01   4.000000E-01   4.000000E-01   4.000000E-01   4.000000E-01   4.000000E-01   4.000000E-01   4.000000E-01   4.000000E-01   4.000000E-01   4.000000E-01   4.000000E-01   4.000000E-01   4.000000E-01   4.000000E-01   4.000000E-01   4.000000E-01   4.000000E-01   4.000000E-01   4.000000E-01   4.000000E-01   4.000000E-01   4.000000E-01   4.000000E-01   4.000000E-01   4.000000E-01   4.000000E-01   4.000000E-01   4.000000E-01   4.000000E-01   4.000000E-01   4.000000E-01   4.000000E-01   4.000000E-01   4.000000E-01   4.000000E-01   4.000000E-01   4.000000E-01   4.000000E-01   4.000000E-01   4.000000E-01   4.000000E-01   4.000000E-01   4.000000E-01   4.000000E-01   4.000000E-01   4.000000E-01   4.000000E-01   4.000000E-01   4.000000E-01   4.000000E-01   4.000000E-01   4.000000E-01   4.000000E-01   4.000000E-01   4.000000E-01   4.000000E-01   4.000000E-01   4.000000E-01   4.000000E-01   4.000000E-01   4.000000E-01   4.000000E-01   4.000000E-01   4.000000E-01   4.000000E-01   4.000000E-01   4.000000E-01   4.000000E-01   4.000000E-01   4.000000E-01   4.000000E-01   4.000000E-01   4.000000E-01   4.000000E-01   4.000000E-01   4.000000E-01   4.000000E-01   4.000000E-01   4.000000E-01   4.000000E-01   4.000000E-01   4.000000E-01   4.000000E-01   4.000000E-01   4.000000E-01   4.000000E-01   4.000000E-01   4.000000E-01   4.000000E-01   4.000000E-01   4.000000E-01   4.000000E-01   4.000000E-01   4.000000E-01   4.000000E-01   4.000000E-01   4.000000E-01   4.000000E-01   4.000000E-01   4.000000E-01   4.000000E-01   4.000000E-01   4.000000E-01   4.000000E-01   4.000000E-01   4.000000E-01   4.000000E-01   4.000000E-01   4.000000E-01   4.000000E-01   4.000000E-01   4.000000E-01   4.000000E-01   4.000000E-01   4.000000E-01   4.000000E-01   4.000000E-01   4.000000E-01   4.000000E-01   4.000000E-01   4.000000E-01   4.000000E-01   4.000000E-01   4.000000E-01   4.000000E-01   4.000000E-01   4.000000E-01   4.000000E-01   4.000000E-01   4.000000E-01   4.000000E-01   4.000000E-01   4.000000E-01   4.000000E-01   4.000000E-01   4.000000E-01   4.000000E-01   4.000000E-01   4.000000E-01   4.000000E-01   4.000000E-01   4.000000E-01   4.000000E-01   4.000000E-01   4.000000E-01   4.000000E-01   4.000000E-01   4.000000E-01   4.000000E-01   4.000000E-01   4.000000E-01   4.000000E-01   4.000000E-01   4.000000E-01   4.000000E-01   4.000000E-01   4.000000E-01   4.000000E-01   4.000000E-01   4.000000E-01   4.000000E-01   4.000000E-01   4.000000E-01   4.000000E-01   4.000000E-01   4.000000E-01   4.000000E-01   4.000000E-01   4.000000E-01   4.000000E-01   4.000000E-01   4.000000E-01   4.000000E-01   4.000000E-01   4.000000E-01   4.000000E-01   4.000000E-01   4.000000E-01   4.000000E-01   4.000000E-01   4.000000E-01   4.000000E-01   4.000000E-01   4.000000E-01   4.000000E-01   4.000000E-01   4.000000E-01   4.000000E-01   4.000000E-01   4.000000E-01   4.000000E-01   4.000000E-01   4.000000E-01   4.000000E-01   4.000000E-01   4.000000E-01   4.000000E-01   4.000000E-01   4.000000E-01   4.000000E-01   4.000000E-01   4.000000E-01   4.000000E-01   4.000000E-01   4.000000E-01   4.000000E-01   4.000000E-01   4.000000E-01   4.000000E-01   4.000000E-01   4.000000E-01   4.000000E-01   4.000000E-01   4.000000E-01   4.000000E-01   4.000000E-01   4.000000E-01   4.000000E-01   4.000000E-01   4.000000E-01   4.000000E-01   4.000000E-01   4.000000E-01   4.000000E-01   4.000000E-01   4.000000E-01   4.000000E-01   4.000000E-01   4.000000E-01   4.000000E-01   4.000000E-01   4.000000E-01   4.000000E-01   4.000000E-01   4.000000E-01   4.000000E-01   4.000000E-01   4.000000E-01   4.000000E-01   4.000000E-01   4.000000E-01   4.000000E-01   4.000000E-01   4.000000E-01   4.000000E-01   4.000000E-01   4.000000E-01   4.000000E-01   4.000000E-01   4.000000E-01   4.000000E-01   4.000000E-01   4.000000E-01   4.000000E-01   4.000000E-01   4.000000E-01   4.000000E-01   4.000000E-01   4.000000E-01   4.000000E-01   4.000000E-01   4.000000E-01   4.000000E-01   4.000000E-01   4.000000E-01   4.000000E-01   4.000000E-01   4.000000E-01   4.000000E-01   4.000000E-01   4.000000E-01   4.000000E-01   4.000000E-01   4.000000E-01   4.000000E-01   4.000000E-01   4.000000E-01   4.000000E-01   4.000000E-01   4.000000E-01   4.000000E-01   4.000000E-01   4.000000E-01   4.000000E-01   4.000000E-01   4.000000E-01   4.000000E-01   4.000000E-01   4.000000E-01   4.000000E-01   4.000000E-01   4.000000E-01   4.000000E-01   4.000000E-01   4.000000E-01   4.000000E-01   4.000000E-01   4.000000E-01   4.000000E-01   4.000000E-01   4.000000E-01   4.000000E-01   4.000000E-01   4.000000E-01   4.000000E-01   4.000000E-01   4.000000E-01   4.000000E-01   4.000000E-01   4.000000E-01   4.000000E-01   4.000000E-01   4.000000E-01   4.000000E-01   4.000000E-01   4.000000E-01   4.000000E-01   4.000000E-01   4.000000E-01   4.000000E-01   4.000000E-01   4.000000E-01   4.000000E-01   4.000000E-01   4.000000E-01   4.000000E-01   4.000000E-01   4.000000E-01   4.000000E-01   4.000000E-01   4.000000E-01   4.000000E-01   4.000000E-01   4.000000E-01   4.000000E-01   4.000000E-01   4.000000E-01   4.000000E-01   4.000000E-01   4.000000E-01   4.000000E-01   4.000000E-01   4.000000E-01   4.000000E-01   4.000000E-01   4.000000E-01   4.000000E-01   4.000000E-01   4.000000E-01   4.000000E-01   4.000000E-01   4.000000E-01   4.000000E-01   4.000000E-01   4.000000E-01   4.000000E-01   4.000000E-01   4.000000E-01   4.000000E-01   4.000000E-01   4.000000E-01   4.000000E-01   4.000000E-01   4.000000E-01   4.000000E-01   4.000000E-01   4.000000E-01   4.000000E-01   4.000000E-01   4.000000E-01   4.000000E-01   4.000000E-01   4.000000E-01   