<?xml version="1.0"?>
<!-- Time =  0.0000000000000000E+00s -->
<VTKFile type="PolyData" version="0.1" byte_order="LittleEndian">
<PolyData>
<Piece NumberOfPoints="0000002400" NumberOfVerts="0" NumberOfLines="0" NumberOfStrips="0" NumberOfPolys="0">
<Points>
<DataArray type="Float32" Name="Position" NumberOfComponents="3" format="ascii">
  9.100000E-01   2.780387E-01   0.000000E+00   1.350000E+00   2.780387E-01   0.000000E+00   1.790000E+00   2.780387E-01   0.000000E+00   2.230000E+00   2.780387E-01   0.000000E+00   2.670000E+00   2.780387E-01   0.000000E+00   3.110000E+00   2.780387E-01   0.000000E+00   3.550000E+00   2.780387E-01   0.000000E+00   3.990000E+00   2.780387E-01   0.000000E+00   4.430000E+00   2.780387E-01   0.000000E+00   4.870000E+00   2.780387E-01   0.000000E+00   5.310000E+00   2.780387E-01   0.000000E+00   5.750000E+00   2.780387E-01   0.000000E+00   6.190000E+00   2.780387E-01   0.000000E+00   6.630000E+00   2.780387E-01   0.000000E+00   7.070000E+00   2.780387E-01   0.000000E+00   7.510000E+00   2.780387E-01   0.000000E+00   7.950000E+00   2.780387E-01   0.000000E+00   6.900000E-01   1.099090E+00   0.000000E+00   1.130000E+00   1.099090E+00   0.000000E+00   1.570000E+00   1.099090E+00   0.000000E+00   2.010000E+00   1.099090E+00   0.000000E+00   2.450000E+00   1.099090E+00   0.000000E+00   2.890000E+00   1.099090E+00   0.000000E+00   3.330000E+00   1.099090E+00   0.000000E+00   3.770000E+00   1.099090E+00   0.000000E+00   4.210000E+00   1.099090E+00   0.000000E+00   4.650000E+00   1.099090E+00   0.000000E+00   5.090000E+00   1.099090E+00   0.000000E+00   5.530000E+00   1.099090E+00   0.000000E+00   5.970000E+00   1.099090E+00   0.000000E+00   6.410000E+00   1.099090E+00   0.000000E+00   6.850000E+00   1.099090E+00   0.000000E+00   7.290000E+00   1.099090E+00   0.000000E+00   7.730000E+00   1.099090E+00   0.000000E+00   9.100000E-01   1.480141E+00   0.000000E+00   1.350000E+00   1.480141E+00   0.000000E+00   1.790000E+00   1.480141E+00   0.000000E+00   2.230000E+00   1.480141E+00   0.000000E+00   2.670000E+00   1.480141E+00   0.000000E+00   3.110000E+00   1.480141E+00   0.000000E+00   3.550000E+00   1.480141E+00   0.000000E+00   3.990000E+00   1.480141E+00   0.000000E+00   4.430000E+00   1.480141E+00   0.000000E+00   4.870000E+00   1.480141E+00   0.000000E+00   5.310000E+00   1.480141E+00   0.000000E+00   5.750000E+00   1.480141E+00   0.000000E+00   6.190000E+00   1.480141E+00   0.000000E+00   6.630000E+00   1.480141E+00   0.000000E+00   7.070000E+00   1.480141E+00   0.000000E+00   7.510000E+00   1.480141E+00   0.000000E+00   7.950000E+00   1.480141E+00   0.000000E+00   6.900000E-01   1.861193E+00   0.000000E+00   1.130000E+00   1.861193E+00   0.000000E+00   1.570000E+00   1.861193E+00   0.000000E+00   2.010000E+00   1.861193E+00   0.000000E+00   2.450000E+00   1.861193E+00   0.000000E+00   2.890000E+00   1.861193E+00   0.000000E+00   3.330000E+00   1.861193E+00   0.000000E+00   3.770000E+00   1.861193E+00   0.000000E+00   4.210000E+00   1.861193E+00   0.000000E+00   4.650000E+00   1.861193E+00   0.000000E+00   5.090000E+00   1.861193E+00   0.000000E+00   5.530000E+00   1.861193E+00   0.000000E+00   5.970000E+00   1.861193E+00   0.000000E+00   6.410000E+00   1.861193E+00   0.000000E+00   6.850000E+00   1.861193E+00   0.000000E+00   7.290000E+00   1.861193E+00   0.000000E+00   7.730000E+00   1.861193E+00   0.000000E+00   9.100000E-01   2.242244E+00   0.000000E+00   1.350000E+00   2.242244E+00   0.000000E+00   1.790000E+00   2.242244E+00   0.000000E+00   2.230000E+00   2.242244E+00   0.000000E+00   2.670000E+00   2.242244E+00   0.000000E+00   3.110000E+00   2.242244E+00   0.000000E+00   3.550000E+00   2.242244E+00   0.000000E+00   3.990000E+00   2.242244E+00   0.000000E+00   4.430000E+00   2.242244E+00   0.000000E+00   4.870000E+00   2.242244E+00   0.000000E+00   5.310000E+00   2.242244E+00   0.000000E+00   5.750000E+00   2.242244E+00   0.000000E+00   6.190000E+00   2.242244E+00   0.000000E+00   6.630000E+00   2.242244E+00   0.000000E+00   7.070000E+00   2.242244E+00   0.000000E+00   7.510000E+00   2.242244E+00   0.000000E+00   7.950000E+00   2.242244E+00   0.000000E+00   6.900000E-01   2.623295E+00   0.000000E+00   1.130000E+00   2.623295E+00   0.000000E+00   1.570000E+00   2.623295E+00   0.000000E+00   2.010000E+00   2.623295E+00   0.000000E+00   2.450000E+00   2.623295E+00   0.000000E+00   2.890000E+00   2.623295E+00   0.000000E+00   3.330000E+00   2.623295E+00   0.000000E+00   3.770000E+00   2.623295E+00   0.000000E+00   4.210000E+00   2.623295E+00   0.000000E+00   4.650000E+00   2.623295E+00   0.000000E+00   5.090000E+00   2.623295E+00   0.000000E+00   5.530000E+00   2.623295E+00   0.000000E+00   5.970000E+00   2.623295E+00   0.000000E+00   6.410000E+00   2.623295E+00   0.000000E+00   6.850000E+00   2.623295E+00   0.000000E+00   7.290000E+00   2.623295E+00   0.000000E+00   7.730000E+00   2.623295E+00   0.000000E+00   9.100000E-01   3.004346E+00   0.000000E+00   1.350000E+00   3.004346E+00   0.000000E+00   1.790000E+00   3.004346E+00   0.000000E+00   2.230000E+00   3.004346E+00   0.000000E+00   2.670000E+00   3.004346E+00   0.000000E+00   3.110000E+00   3.004346E+00   0.000000E+00   3.550000E+00   3.004346E+00   0.000000E+00   3.990000E+00   3.004346E+00   0.000000E+00   4.430000E+00   3.004346E+00   0.000000E+00   4.870000E+00   3.004346E+00   0.000000E+00   5.310000E+00   3.004346E+00   0.000000E+00   5.750000E+00   3.004346E+00   0.000000E+00   6.190000E+00   3.004346E+00   0.000000E+00   6.630000E+00   3.004346E+00   0.000000E+00   7.070000E+00   3.004346E+00   0.000000E+00   7.510000E+00   3.004346E+00   0.000000E+00   7.950000E+00   3.004346E+00   0.000000E+00   6.900000E-01   3.385397E+00   0.000000E+00   1.130000E+00   3.385397E+00   0.000000E+00   1.570000E+00   3.385397E+00   0.000000E+00   2.010000E+00   3.385397E+00   0.000000E+00   2.450000E+00   3.385397E+00   0.000000E+00   2.890000E+00   3.385397E+00   0.000000E+00   3.330000E+00   3.385397E+00   0.000000E+00   3.770000E+00   3.385397E+00   0.000000E+00   4.210000E+00   3.385397E+00   0.000000E+00   4.650000E+00   3.385397E+00   0.000000E+00   5.090000E+00   3.385397E+00   0.000000E+00   5.530000E+00   3.385397E+00   0.000000E+00   5.970000E+00   3.385397E+00   0.000000E+00   6.410000E+00   3.385397E+00   0.000000E+00   6.850000E+00   3.385397E+00   0.000000E+00   7.290000E+00   3.385397E+00   0.000000E+00   7.730000E+00   3.385397E+00   0.000000E+00   9.100000E-01   3.766448E+00   0.000000E+00   1.350000E+00   3.766448E+00   0.000000E+00   1.790000E+00   3.766448E+00   0.000000E+00   2.230000E+00   3.766448E+00   0.000000E+00   2.670000E+00   3.766448E+00   0.000000E+00   3.110000E+00   3.766448E+00   0.000000E+00   3.550000E+00   3.766448E+00   0.000000E+00   3.990000E+00   3.766448E+00   0.000000E+00   4.430000E+00   3.766448E+00   0.000000E+00   4.870000E+00   3.766448E+00   0.000000E+00   5.310000E+00   3.766448E+00   0.000000E+00   5.750000E+00   3.766448E+00   0.000000E+00   6.190000E+00   3.766448E+00   0.000000E+00   6.630000E+00   3.766448E+00   0.000000E+00   7.070000E+00   3.766448E+00   0.000000E+00   7.510000E+00   3.766448E+00   0.000000E+00   7.950000E+00   3.766448E+00   0.000000E+00   6.900000E-01   4.147500E+00   0.000000E+00   1.130000E+00   4.147500E+00   0.000000E+00   1.570000E+00   4.147500E+00   0.000000E+00   2.010000E+00   4.147500E+00   0.000000E+00   2.450000E+00   4.147500E+00   0.000000E+00   2.890000E+00   4.147500E+00   0.000000E+00   3.330000E+00   4.147500E+00   0.000000E+00   3.770000E+00   4.147500E+00   0.000000E+00   4.210000E+00   4.147500E+00   0.000000E+00   4.650000E+00   4.147500E+00   0.000000E+00   5.090000E+00   4.147500E+00   0.000000E+00   5.530000E+00   4.147500E+00   0.000000E+00   5.970000E+00   4.147500E+00   0.000000E+00   6.410000E+00   4.147500E+00   0.000000E+00   6.850000E+00   4.147500E+00   0.000000E+00   7.290000E+00   4.147500E+00   0.000000E+00   7.730000E+00   4.147500E+00   0.000000E+00   9.100000E-01   4.528551E+00   0.000000E+00   1.350000E+00   4.528551E+00   0.000000E+00   1.790000E+00   4.528551E+00   0.000000E+00   2.230000E+00   4.528551E+00   0.000000E+00   2.670000E+00   4.528551E+00   0.000000E+00   3.110000E+00   4.528551E+00   0.000000E+00   3.550000E+00   4.528551E+00   0.000000E+00   3.990000E+00   4.528551E+00   0.000000E+00   4.430000E+00   4.528551E+00   0.000000E+00   4.870000E+00   4.528551E+00   0.000000E+00   5.310000E+00   4.528551E+00   0.000000E+00   5.750000E+00   4.528551E+00   0.000000E+00   6.190000E+00   4.528551E+00   0.000000E+00   6.630000E+00   4.528551E+00   0.000000E+00   7.070000E+00   4.528551E+00   0.000000E+00   7.510000E+00   4.528551E+00   0.000000E+00   7.950000E+00   4.528551E+00   0.000000E+00   6.900000E-01   4.909602E+00   0.000000E+00   1.130000E+00   4.909602E+00   0.000000E+00   1.570000E+00   4.909602E+00   0.000000E+00   2.010000E+00   4.909602E+00   0.000000E+00   2.450000E+00   4.909602E+00   0.000000E+00   2.890000E+00   4.909602E+00   0.000000E+00   3.330000E+00   4.909602E+00   0.000000E+00   3.770000E+00   4.909602E+00   0.000000E+00   4.210000E+00   4.909602E+00   0.000000E+00   4.650000E+00   4.909602E+00   0.000000E+00   5.090000E+00   4.909602E+00   0.000000E+00   5.530000E+00   4.909602E+00   0.000000E+00   5.970000E+00   4.909602E+00   0.000000E+00   6.410000E+00   4.909602E+00   0.000000E+00   6.850000E+00   4.909602E+00   0.000000E+00   7.290000E+00   4.909602E+00   0.000000E+00   7.730000E+00   4.909602E+00   0.000000E+00   9.100000E-01   5.290653E+00   0.000000E+00   1.350000E+00   5.290653E+00   0.000000E+00   1.790000E+00   5.290653E+00   0.000000E+00   2.230000E+00   5.290653E+00   0.000000E+00   2.670000E+00   5.290653E+00   0.000000E+00   3.110000E+00   5.290653E+00   0.000000E+00   3.550000E+00   5.290653E+00   0.000000E+00   3.990000E+00   5.290653E+00   0.000000E+00   4.430000E+00   5.290653E+00   0.000000E+00   4.870000E+00   5.290653E+00   0.000000E+00   5.310000E+00   5.290653E+00  
[...]
<PointData Scalars="Diameter" Vectors="Velocity">
<DataArray type="Float32" Name="Diameter" format="ascii">
  4.000000E-01   4.000000E-01   4.000000E-01   4.000000E-01   4.000000E-01   4.000000E-01   4.000000E-01   4.000000E-01   4.000000E-01   4.000000E-01   4.000000E-01   4.000000E-01   4.000000E-01   4.000000E-01   4.000000E-01   4.000000E-01   4.000000E-01   4.000000E-01   4.000000E-01   4.000000E-01   4.000000E-01   4.000000E-01   4.000000E-01   4.000000E-01   4.000000E-01   4.000000E-01   4.000000E-01   4.000000E-01   4.000000E-01   4.000000E-01   4.000000E-01   4.000000E-01   4.000000E-01   4.000000E-01   4.000000E-01   4.000000E-01   4.000000E-01   4.000000E-01   4.000000E-01   4.000000E-01   4.000000E-01   4.000000E-01   4.000000E-01   4.000000E-01   4.000000E-01   4.000000E-01   4.000000E-01   4.000000E-01   4.000000E-01   4.000000E-01   4.000000E-01   4.000000E-01   4.000000E-01   4.000000E-01   4.000000E-01   4.000000E-01   4.000000E-01   4.000000E-01   4.000000E-01   4.000000E-01   4.000000E-01   4.000000E-01   4.000000E-01   4.000000E-01   4.000000E-01   4.000000E-01   4.000000E-01   4.000000E-01   4.000000E-01   4.000000E-01   4.000000E-01   4.000000E-01   4.000000E-01   4.000000E-01   4.000000E-01   4.000000E-01   4.000000E-01   4.000000E-01   4.000000E-01   4.000000E-01   4.000000E-01   4.000000E-01   4.000000E-01   4.000000E-01   4.000000E-01   4.000000E-01   4.000000E-01   4.000000E-01   4.000000E-01   4.000000E-01   4.000000E-01   4.000000E-01   4.000000E-01   4.000000E-01   4.000000E-01   4.000000E-01   4.000000E-01   4.000000E-01   4.000000E-01   4.000000E-01   4.000000E-01   4.000000E-01   4.000000E-01   4.000000E-01   4.000000E-01   4.000000E-01   4.000000E-01   4.000000E-01   4.000000E-01   4.000000E-01   4.000000E-01   4.000000E-01   4.000000E-01   4.000000E-01   4.000000E-01   4.000000E-01   4.000000E-01   4.000000E-01   4.000000E-01   4.000000E-01   4.000000E-01   4.000000E-01   4.000000E-01   4.000000E-01   4.000000E-01   4.000000E-01   4.000000E-01   4.000000E-01   4.000000E-01   4.000000E-01   4.000000E-01   4.000000E-01   4.000000E-01   4.000000E-01   4.000000E-01   4.000000E-01   4.000000E-01   4.000000E-01   4.000000E-01   4.000000E-01   4.000000E-01   4.000000E-01   4.000000E-01   4.000000E-01   4.000000E-01   4.000000E-01   4.000000E-01   4.000000E-01   4.000000E-01   4.000000E-01   4.000000E-01   4.000000E-01   4.000000E-01   4.000000E-01   4.000000E-01   4.000000E-01   4.000000E-01   4.000000E-01   4.000000E-01   4.000000E-01   4.000000E-01   4.000000E-01   4.000000E-01   4.000000E-01   4.000000E-01   4.000000E-01   4.000000E-01   4.000000E-01   4.000000E-01   4.000000E-01   4.000000E-01   4.000000E-01   4.000000E-01   4.000000E-01   4.000000E-01   4.000000E-01   4.000000E-01   4.000000E-01   4.000000E-01   4.000000E-01   4.000000E-01   4.000000E-01   4.000000E-01   4.000000E-01   4.000000E-01   4.000000E-01   4.000000E-01   4.000000E-01   4.000000E-01   4.000000E-01   4.000000E-01   4.000000E-01   4.000000E-01   4.000000E-01   4.000000E-01   4.000000E-01   4.000000E-01   4.000000E-01   4.000000E-01   4.000000E-01   4.000000E-01   4.000000E-01   4.000000E-01   4.000000E-01   4.000000E-01   4.000000E-01   4.000000E-01   4.000000E-01   4.000000E-01   4.000000E-01   4.000000E-01   4.000000E-01   4.000000E-01   4.000000E-01   4.000000E-01   4.000000E-01   4.000000E-01   4.000000E-01   4.000000E-01   4.000000E-01   4.000000E-01   4.000000E-01   4.000000E-01   4.000000E-01   4.000000E-01   4.000000E-01   4.000000E-01   4.000000E-01   4.000000E-01   4.000000E-01   4.000000E-01   4.000000E-01   4.000000E-01   4.000000E-01   4.000000E-01   4.000000E-01   4.000000E-01   4.000000E-01   4.000000E-01   4.000000E-01   4.000000E-01   4.000000E-01   4.000000E-01   4.000000E-01   4.000000E-01   4.000000E-01   4.000000E-01   4.000000E-01   4.000000E-01   4.000000E-01   4.000000E-01   4.000000E-01   4.000000E-01   4.000000E-01   4.000000E-01   4.000000E-01   4.000000E-01   4.000000E-01   4.000000E-01   4.000000E-01   4.000000E-01   4.000000E-01   4.000000E-01   4.000000E-01   4.000000E-01   4.000000E-01   4.000000E-01   4.000000E-01   4.000000E-01   4.000000E-01   4.000000E-01   4.000000E-01   4.000000E-01   4.000000E-01   4.000000E-01   4.000000E-01   4.000000E-01   4.000000E-01   4.000000E-01   4.000000E-01   4.000000E-01   4.000000E-01   4.000000E-01   4.000000E-01   4.000000E-01   4.000000E-01   4.000000E-01   4.000000E-01   4.000000E-01   4.000000E-01   4.000000E-01   4.000000E-01   4.000000E-01   4.000000E-01   4.000000E-01   4.000000E-01   4.000000E-01   4.000000E-01   4.000000E-01   4.000000E-01   4.000000E-01   4.000000E-01   4.000000E-01   4.000000E-01   4.000000E-01   4.000000E-01   4.000000E-01   4.000000E-01   4.000000E-01   4.000000E-01   4.000000E-01   4.000000E-01   4.000000E-01   4.000000E-01   4.000000E-01   4.000000E-01   4.000000E-01   4.000000E-01   4.000000E-01   4.000000E-01   4.000000E-01   4.000000E-01   4.000000E-01   4.000000E-01   4.000000E-01   4.000000E-01   4.000000E-01   4.000000E-01   4.000000E-01   4.000000E-01   4.000000E-01   4.000000E-01   4.000000E-01   4.000000E-01   4.000000E-01   4.000000E-01   4.000000E-01   4.000000E-01   4.000000E-01   4.000000E-01   4.000000E-01   4.000000E-01   4.000000E-01   4.000000E-01   4.000000E-01   4.000000E-01   4.000000E-01   4.000000E-01   4.000000E-01   4.000000E-01   4.000000E-01   4.000000E-01   4.000000E-01   4.000000E-01   4.000000E-01   4.000000E-01   4.000000E-01   4.000000E-01   4.000000E-01   4.000000E-01   4.000000E-01   4.000000E-01   4.000000E-01   4.000000E-01   4.000000E-01   4.000000E-01   4.000000E-01   4.000000E-01   4.000000E-01   4.000000E-01   4.000000E-01   4.000000E-01   4.000000E-01   4.000000E-01   4.000000E-01   4.000000E-01   4.000000E-01   4.000000E-01   4.000000E-01   4.000000E-01   4.000000E-01   4.000000E-01   4.000000E-01   4.000000E-01   4.000000E-01   4.000000E-01   4.000000E-01   4.000000E-01   4.000000E-01   4.000000E-01   4.000000E-01   4.000000E-01   4.000000E-01   4.000000E-01   4.000000E-01   4.000000E-01   4.000000E-01   4.000000E-01   4.000000E-01   4.000000E-01   4.000000E-01   4.000000E-01   4.000000E-01   4.000000E-01   4.000000E-01   4.000000E-01   4.000000E-01   4.000000E-01   4.000000E-01   4.000000E-01   4.000000E-01   4.000000E-01   4.000000E-01   4.000000E-01   4.000000E-01   4.000000E-01   4.000000E-01   4.000000E-01   4.000000E-01   4.000000E-01   4.000000E-01   4.000000E-01   4.000000E-01   4.000000E-01   4.000000E-01   4.000000E-01   4.000000E-01   4.000000E-01   4.000000E-01   4.000000E-01   4.000000E-01   4.000000E-01   4.000000E-01   4.000000E-01   4.000000E-01   4.000000E-01   4.000000E-01   4.000000E-01   4.000000E-01   4.000000E-01   4.000000E-01   4.000000E-01   4.000000E-01   4.000000E-01   4.000000E-01   4.000000E-01   4.000000E-01   4.000000E-01   4.000000E-01   4.000000E-01   4.000000E-01   4.000000E-01   4.000000E-01   4.000000E-01   4.000000E-01   4.000000E-01   4.000000E-01   4.000000E-01   4.000000E-01   4.000000E-01   4.000000E-01   4.000000E-01   4.000000E-01   4.000000E-01   4.000000E-01   4.000000E-01   4.000000E-01   4.000000E-01   4.000000E-01   4.000000E-01   4.000000E-01   4.000000E-01   4.000000E-01   4.000000E-01   4.000000E-01   4.000000E-01   4.000000E-01   4.000000E-01   4.000000E-01   4.000000E-01   4.000000E-01   4.000000E-01   4.000000E-01   4.000000E-01   4.000000E-01   4.000000E-01   4.000000E-01   4.000000E-01   4.000000E-01   4.000000E-01   4.000000E-01   4.000000E-01   4.000000E-01   4.000000E-01   4.000000E-01   4.000000E-01   4.000000E-01   4.000000E-01   4.000000E-01   4.000000E-01   4.000000E-01   4.000000E-01   4.000000E-01   4.000000E-01   4.000000E-01   4.000000E-01   4.000000E-01   4.000000E-01   4.000000E-01   4.000000E-01   4.000000E-01   4.000000E-01   4.000000E-01   4.000000E-01   4.000000E-01   4.000000E-01   4.000000E-01   4.000000E-01   4.000000E-01   4.000000E-01   4.000000E-01   4.000000E-01   4.000000E-01   4.000000E-01   4.000000E-01   4.000000E-01   4.000000E-01   4.000000E-01   4.000000E-01   4.000000E-01   4.000000E-01   4.000000E-01   4.000000E-01   4.000000E-01   4.000000E-01   4.000000E-01   4.000000E-01   4.000000E-01   4.000000E-01   4.000000E-01   4.000000E-01   4.000000E-01   4.000000E-01   4.000000E-01   4.000000E-01   4.000000E-01   4.000000E-01   4.000000E-01   4.000000E-01   4.000000E-01   4.000000E-01   4.000000E-01   4.000000E-01   4.000000E-01   4.000000E-01   4.000000E-01   4.000000E-01   4.000000E-01   4.000000E-01   4.000000E-01   4.000000E-01   4.000000E-01   4.000000E-01   4.000000E-01   4.000000E-01   4.000000E-01   4.000000E-01   4.000000E-01   4.000000E-01   4.000000E-01   4.000000E-01   4.000000E-01   4.000000E-01   4.000000E-01   4.000000E-01   4.000000E-01   4.000000E-01   4.000000E-01   4.000000E-01   4.000000E-01   4.000000E-01   4.000000E-01   4.000000E-01   4.000000E-01   4.000000E-01   4.000000E-01   4.000000E-01   4.000000E-01   4.000000E-01   4.000000E-01   4.000000E-01   4.000000E-01   4.000000E-01   4.000000E-01   4.000000E-01   4.000000E-01   4.000000E-01   4.000000E-01   4.000000E-01   4.000000E-01   4.000000E-01   4.000000E-01   4.000000E-01   4.000000E-01   4.000000E-01   4.000000E-01   4.000000E-01   4.000000E-01   4.000000E-01   4.000000E-01   4.000000E-01   4.000000E-01   4.000000E-01   4.000000E-01   4.000000E-01   4.000000E-01   4.000000E-01   4.000000E-01   4.000000E-01   4.000000E-01   4.000000E-01   4.000000E-01   4.000000E-01   4.000000E-01   4.000000E-01   4.000000E-01   4.000000E-01   4.000000E-01   4.000000E-01   4.000000E-01   4.000000E-01   4.000000E-01   4.000000E-01   4.000000E-01   4.000000E-01   4.000000E-01   4.000000E-01   4.000000E-01   4.000000E-01   4.000000E-01   4.000000E-01   4.000000E-01   4.000000E-01   4.000000E-01   4.000000E-01   4.000000E-01   4.000000E-01   4.000000E-01   4.000000E-01   4.000000E-01   4.000000E-01   4.000000E-01   4.000000E-01   4.000000E-01   4.000000E-01   4.000000E-01   4.000000E-01   4.000000E-01   4.000000E-01   4.000000E-01   4.000000E-01   4.000000E-01   4.000000E-01   4.000000E-01   4.000000E-01   4.000000E-01   4.000000E-01   4.000000E-01   4.000000E-01   4.000000E-01   4.000000E-01   4.000000E-01   4.000000E-01   4.000000E-01   4.000000E-01   4.000000E-01   4.000000E-01   4.000000E-01   4.000000E-01   4.000000E-01   4.000000E-01   4.000000E-01   4.000000E-01   4.000000E-01   4.000000E-01   4.000000E-01   4.000000E-01   4.000000E-01   4.000000E-01   4.000000E-01   4.000000E-01   4.000000E-01   4.000000E-01   4.000000E-01   4.000000E-01   4.000000E-01   4.000000E-01   4.000000E-01   4.000000E-01   4.000000E-01   4.000000E-01   4.000000E-01   4.000000E-01   4.000000E-01   4.000000E-01   4.000000E-01   4.000000E-01   4.000000E-01   4.000000E-01   4.000000E-01   4.000000E-01   4.000000E-01   4.000000E-01   4.000000E-01   4.000000E-01   4.000000E-01   4.000000E-01   4.000000E-01   4.000000E-01   4.000000E-01   4.000000E-01   4.000000E-01   4.000000E-01   4.000000E-01   4.000000E-01   4.000000E-01   4.000000E-01   4.000000E-01   4.000000E-01   4.000000E-01   4.000000E-01   4.000000E-01   4.000000E-01   4.000000E-01   4.000000E-01   4.000000E-01   4.000000E-01   4.000000E-01   4.000000E-01   4.000000E-01   4.000000E-01   4.000000E-01   4.000000E-01   4.000000E-01   4.000000E-01   4.000000E-01   4.000000E-01   4.000000E-01   4.000000E-01   4.000000E-01   4.000000E-01   4.000000E-01   4.000000E-01   4.000000E-01   4.000000E-01   4.000000E-01   4.000000E-01   4.000000E-01   4.000000E-01   4.000000E-01   4.000000E-01   4.000000E-01   4.000000E-01   4.000000E-01   4.000000E-01   4.000000E-01   4.000000E-01   4.000000E-01   4.000000E-01   4.000000E-01   4.000000E-01   4.000000E-01   4.000000E-01   4.000000E-01   4.000000E-01   4.000000E-01   4.000000E-01   4.000000E-01   4.000000E-01   4.000000E-01   4.000000E-01   4.000000E-01   4.000000E-01   4.000000E-01   4.000000E-01   4.000000E-01   4.000000E-01   4.000000E-01   4.000000E-01   4.000000E-01   4.000000E-01   4.000000E-01   4.000000E-01   4.000000E-01   4.000000E-01   4.000000E-01   4.000000E-01   4.000000E-01   4.000000E-01   4.000000E-01   4.000000E-01   4.000000E-01   4.000000E-01   4.000000E-01   4.000000E-01   4.000000E-01   4.000000E-01   4.000000E-01   4.000000E-01   4.000000E-01   4.000000E-01   4.000000E-01   4.000000E-01   4.000000E-01   4.000000E-01   4.000000E-01   4.000000E-01   4.000000E-01   4.000000E-01   4.000000E-01   4.000000E-01   4.000000E-01   4.000000E-01   4.000000E-01   4.000000E-01   4.000000E-01   4.000000E-01   4.000000E-01   4.000000E-01   4.000000E-01   4.000000E-01   4.000000E-01   4.000000E-01   4.000000E-01   4.000000E-01   4.000000E-01   4.000000E-01   4.000000E-01   4.000000E-01   4.000000E-01   4.000000E-01   4.000000E-01   4.000000E-01   4.000000E-01   4.000000E-01   4.000000E-01   4.000000E-01   4.000000E-01   4.000000E-01   4.000000E-01   4.000000E-01   4.000000E-01   4.000000E-01   4.000000E-01   4.000000E-01   4.000000E-01   4.000000E-01   4.000000E-01   4.000000E-01   4.000000E-01   4.000000E-01   4.000000E-01   4.000000E-01   4.000000E-01   4.000000E-01   4.000000E-01   4.000000E-01   4.000000E-01   4.000000E-01   4.000000E-01   4.000000E-01   4.000000E-01   4.000000E-01   4.000000E-01   4.000000E-01   4.000000E-01   4.000000E-01   4.000000E-01   4.000000E-01   4.000000E-01   4.000000E-01   4.000000E-01   4.000000E-01   4.000000E-01   4.000000E-01   4.000000E-01   4.000000E-01   4.000000E-01   4.000000E-01   4.000000E-01   4.000000E-01   4.000000E-01   4.000000E-01   4.000000E-01   4.000000E-01   4.000000E-01   4.000000E-01   4.000000E-01   4.000000E-01   4.000000E-01   4.000000E-01   4.000000E-01   4.000000E-01   4.000000E-01   4.000000E-01   4.000000E-01   4.000000E-01   4.000000E-01   4.000000E-01   4.000000E-01   4.000000E-01   4.000000E-01   4.000000E-01   4.000000E-01   4.000000E-01   4.000000E-01   4.000000E-01   4.000000E-01   4.000000E-01   4.000000E-01   4.000000E-01   4.000000E-01   4.000000E-01   4.000000E-01   4.000000E-01   4.000000E-01   4.000000E-01   4.000000E-01   4.000000E-01   4.000000E-01   4.000000E-01   4.000000E-01   4.000000E-01   4.000000E-01   4.000000E-01   4.000000E-01   4.000000E-01   4.000000E-01   4.000000E-01   4.000000E-01   4.000000E-01   4.000000E-01   4.000000E-01   4.000000E-01   4.000000E-01   4.000000E-01   4.000000E-01   4.000000E-01   4.000000E-01   4.000000E-01   4.000000E-01   4.000000E-01   4.000000E-01   4.000000E-01   4.000000E-01   4.000000E-01   4.000000E-01   4.000000E-01   4.000000E-01   4.000000E-01   4.000000E-01   4.000000E-01   4.000000E-01   4.000000E-01   4.000000E-01   4.000000E-01   4.000000E-01   4.000000E-01   4.000000E-01   4.000000E-01   4.000000E-01   4.000000E-01   4.000000E-01   4.000000E-01   4.000000E-01   4.000000E-01   4.000000E-01   4.000000E-01   4.000000E-01   4.000000E-01   4.000000E-01   4.000000E-01   4.000000E-01   4.000000E-01   4.000000E-01   4.000000E-01   4.000000E-01   4.000000E-01   4.000000E-01   4.000000E-01   4.000000E-01   4.000000E-01   4.000000E-01   4.000000E-01   4.000000E-01   4.000000E-01   4.000000E-01   4.000000E-01   4.000000E-01   4.000000E-01   4.000000E-01   4.000000E-01   4.000000E-01   4.000000E-01   4.000000E-01   4.000000E-01   4.000000E-01   4.000000E-01   4.000000E-01   4.000000E-01   4.000000E-01   4.000000E-01   4.000000E-01   4.000000E-01   4.000000E-01   4.000000E-01   4.000000E-01   4.000000E-01   4.000000E-01   4.000000E-01   4.000000E-01   4.000000E-01   4.000000E-01   4.000000E-01   4.000000E-01   4.000000E-01   4.000000E-01   4.000000E-01   4.000000E-01   4.000000E-01   4.000000E-01   4.000000E-01   4.000000E-01   4.000000E-01   4.000000E-01   4.000000E-01   4.000000E-01   4.000000E-01   4.000000E-01   4.000000E-01   4.000000E-01   4.000000E-01   4.000000E-01   4.000000E-01   4.000000E-01   4.000000E-01   4.000000E-01   4.000000E-01   4.000000E-01   4.000000E-01   4.000000E-01   4.000000E-01   4.000000E-01   4.000000E-01   4.000000E-01   4.000000E-01   4.000000E-01   4.000000E-01   4.000000E-01   4.000000E-01   4.000000E-01   4.000000E-01   4.000000E-01   4.000000E-01   4.000000E-01   4.000000E-01   4.000000E-01   4.000000E-01   4.000000E-01   4.000000E-01   4.000000E-01   4.000000E-01   4.000000E-01   4.000000E-01   4.000000E-01   4.000000E-01   4.000000E-01   4.000000E-01   4.000000E-01   4.000000E-01   4.000000E-01   4.000000E-01   4.000000E-01   4.000000E-01   4.000000E-01   4.000000E-01   4.000000E-01   4.000000E-01   4.000000E-01   4.000000E-01   4.000000E-01   4.000000E-01   4.000000E-01   4.000000E-01   4.000000E-01   4.000000E-01   4.000000E-01   4.000000E-01   4.000000E-01   4.000000E-01   4.000000E-01   4.000000E-01   4.000000E-01   4.000000E-01   4.000000E-01   4.000000E-01   4.000000E-01   4.000000E-01   4.000000E-01   4.000000E-01   4.000000E-01   4.000000E-01   4.000000E-01   4.000000E-01   4.000000E-01   4.000000E-01   4.000000E-01   4.000000E-01   4.000000E-01   4.000000E-01   4.000000E-01   4.000000E-01   4.000000E-01   4.000000E-01   4.000000E-01   4.000000E-01   4.000000E-01   4.000000E-01   4.000000E-01   4.000000E-01   4.000000E-01   4.000000E-01   4.000000E-01   4.000000E-01   4.000000E-01   4.000000E-01   4.000000E-01   4.000000E-01   4.000000E-01   4.000000E-01   4.000000E-01   4.000000E-01   4.000000E-01   4.000000E-01   4.000000E-01   4.000000E-01   4.000000E-01   4.000000E-01   4.000000E-01   4.000000E-01   4.000000E-01   4.000000E-01   4.000000E-01   4.000000E-01   4.000000E-01   4.000000E-01   4.000000E-01   4.000000E-01   4.000000E-01   4.000000E-01   4.000000E-01   4.000000E-01   4.000000E-01   4.000000E-01   4.000000E-01   4.000000E-01   4.000000E-01   4.000000E-01   4.000000E-01   4.000000E-01   4.000000E-01   4.000000E-01   4.000000E-01   4.000000E-01   4.000000E-01   4.000000E-01   4.000000E-01   4.000000E-01   4.000000E-01   4.000000E-01   4.000000E-01   4.000000E-01   4.000000E-01   4.000000E-01   4.000000E-01   4.000000E-01   4.000000E-01   4.000000E-01   4.000000E-01   4.000000E-01   4.000000E-01   4.000000E-01   4.000000E-01   4.000000E-01   4.000000E-01   4.000000E-01   4.000000E-01   4.000000E-01   4.000000E-01   4.000000E-01   4.000000E-01   4.000000E-01   4.000000E-01   4.000000E-01   4.000000E-01   4.000000E-01   4.000000E-01   4.000000E-01   4.000000E-01   4.000000E-01   4.000000E-01   4.000000E-01   4.000000E-01   4.000000E-01   4.000000E-01   4.000000E-01   4.000000E-01   4.000000E-01   4.000000E-01   4.000000E-01   4.000000E-01   4.000000E-01   4.000000E-01   4.000000E-01   4.000000E-01   4.000000E-01   4.000000E-01   4.000000E-01   4.000000E-01   4.000000E-01   4.000000E-01   4.000000E-01   4.000000E-01   4.000000E-01   4.000000E-01   4.000000E-01   4.000000E-01   4.000000E-01   4.000000E-01   4.000000E-01   4.000000E-01   4.000000E-01   4.000000E-01   4.000000E-01   4.000000E-01   4.000000E-01   4.000000E-01   4.000000E-01   4.000000E-01   4.000000E-01   4.000000E-01   4.000000E-01   4.000000E-01   4.000000E-01   4.000000E-01   4.000000E-01   4.000000E-01   4.000000E-01   4.000000E-01   4.000000E-01   4.000000E-01   4.000000E-01   4.000000E-01   4.000000E-01   4.000000E-01   4.000000E-01   4.000000E-01   4.000000E-01   4.000000E-01   4.000000E-01   4.000000E-01   4.000000E-01   4.000000E-01   4.000000E-01   4.000000E-01   4.000000E-01   4.000000E-01   4.000000E-01   4.000000E-01   4.000000E-01   4.000000E-01   4.000000E-01   4.000000E-01   4.000000E-01   4.000000E-01   4.000000E-01   4.000000E-01   4.000000E-01   4.000000E-01   4.000000E-01   4.000000E-01   4.000000E-01   4.000000E-01   4.000000E-01   4.000000E-01   4.000000E-01   4.000000E-01   4.000000E-01   4.000000E-01   4.000000E-01   4.000000E-01   4.000000E-01   4.000000E-01   4.000000E-01   4.000000E-01   4.000000E-01   4.000000E-01   4.000000E-01   4.000000E-01   4.000000E-01   4.000000E-01   4.000000E-01   4.000000E-01   4.000000E-01   4.000000E-01   4.000000E-01   4.000000E-01   4.000000E-01   4.000000E-01   4.000000E-01   4.000000E-01   4.000000E-01   4.000000E-01   4.000000E-01   4.000000E-01   4.000000E-01   