<?xml version="1.0"?>
<!-- Time =  4.0038362602810196E-01s -->
<VTKFile type="PolyData" version="0.1" byte_order="LittleEndian">
<PolyData>
<Piece NumberOfPoints="0000002400" NumberOfVerts="0" NumberOfLines="0" NumberOfStrips="0" NumberOfPolys="0">
<Points>
<DataArray type="Float32" Name="Position" NumberOfComponents="3" format="ascii">
  1.991432E-01   1.995396E-01   2.173655E-01   9.955035E-01   1.998186E-01   2.109915E-01   1.395630E+00   2.001207E-01   2.001349E-01   1.795087E+00   2.000825E-01   2.249905E-01   2.299165E+00   1.999730E-01   1.993411E-01   3.164128E+00   2.321659E-01   2.034902E-01   3.571647E+00   2.156849E-01   2.006534E-01   4.100514E+00   1.997479E-01   2.007417E-01   4.502067E+00   2.003824E-01   1.994518E-01   5.061584E+00   2.004937E-01   2.091425E-01   5.503061E+00   2.000249E-01   2.685449E-01   5.900302E+00   1.987995E-01   2.025477E-01   7.455041E+00   7.054970E-01   2.034925E-01   7.622325E+00   2.206240E+00   8.295647E-01   6.494023E+00   6.112185E-01   4.128050E-01   6.102755E+00   7.216951E-01   8.579554E-01   4.677325E+00   7.328024E+00   1.375563E+00   5.462974E+00   3.375280E+00   6.641188E-01   5.036563E+00   8.062392E-01   1.321723E+00   6.472384E+00   1.078647E+00   1.165852E+00   9.876701E+00   1.002815E+01   1.781544E+00   9.295526E+00   1.033925E+00   4.495852E-01   8.304029E+00   2.044093E-01   2.053488E-01   8.819894E+00   2.233852E-01   2.032511E-01   9.644136E+00   1.998847E-01   2.012919E-01   1.046733E+01   2.001523E-01   1.996507E-01   1.086900E+01   1.996138E-01   2.005147E-01   1.135443E+01   1.998087E-01   2.078020E-01   1.185101E+01   1.998943E-01   2.056227E-01   1.225442E+01   1.996942E-01   1.999721E-01   1.265587E+01   1.997971E-01   1.999839E-01   1.317822E+01   1.997070E-01   1.998846E-01   1.367172E+01   1.996843E-01   1.999495E-01   1.412584E+01   1.998835E-01   2.979603E-01   1.451422E+01   1.997474E-01   2.023551E-01   2.043115E-01   5.997546E-01   2.033334E-01   7.004806E-01   1.996843E-01   5.916575E-01   1.198878E+00   4.909224E-01   3.944275E-01   1.595262E+00   5.466794E-01   2.075820E-01   2.013284E+00   5.358031E-01   2.199440E-01   2.752455E+00   2.536018E-01   2.027386E-01   3.372142E+00   4.243027E-01   4.883747E-01   3.852785E+00   5.137523E-01   2.001443E-01   4.301132E+00   5.128297E-01   3.480270E-01   4.780863E+00   4.873371E-01   2.097657E-01   5.287275E+00   5.319063E-01   2.004689E-01   5.744918E+00   5.690203E-01   2.001746E-01   6.436286E+00   2.073444E-01   2.163168E-01   7.031695E+00   1.421787E+00   2.359772E-01   7.608014E+00   2.596755E+00   4.717183E-01   7.281460E+00   1.878825E+00   2.762557E-01   7.226154E+00   8.210092E-01   6.467322E-01   3.926383E+00   1.003749E+01   1.675537E+00   8.203021E+00   4.647745E-01   5.679030E-01   6.280385E+00   7.572285E-01   1.738383E+00   7.968140E+00   2.208458E+00   3.210132E-01   8.023540E+00   1.784193E+00   3.509952E-01   8.173698E+00   1.581719E+00   8.855531E-01   9.233328E+00   2.549330E-01   2.025592E-01   1.004251E+01   2.062573E-01   1.987019E-01   1.066723E+01   5.458620E-01   2.013198E-01   1.111137E+01   5.175945E-01   2.079828E-01   1.160247E+01   5.134277E-01   1.998937E-01   1.205319E+01   5.452288E-01   1.998518E-01   1.245504E+01   5.456637E-01   1.998552E-01   1.291706E+01   5.021591E-01   2.166816E-01   1.342493E+01   5.118567E-01   2.402156E-01   1.390901E+01   5.215792E-01   2.006020E-01   1.430838E+01   5.425959E-01   1.999714E-01   1.480007E+01   4.794120E-01   1.999037E-01   6.212124E-01   6.295158E-01   2.026785E-01   5.971065E-01   2.302255E-01   2.006084E-01   1.302065E+00   8.268125E-01   2.010639E-01   1.812881E+00   9.032238E-01   4.047315E-01   2.232543E+00   8.948129E-01   3.506532E-01   2.516293E+00   5.815424E-01   1.983822E-01   3.079849E+00   6.775545E-01   2.498788E-01   3.695639E+00   6.643614E-01   5.366626E-01   3.481745E+00   7.052693E-01   2.005741E-01   3.903968E+00   1.022590E+00   4.983698E-01   4.903209E+00   7.752709E-01   7.457062E-01   6.153651E+00   5.130811E-01   2.135385E-01   6.147470E+00   2.012687E-01   5.315781E-01   6.992301E+00   2.052934E+00   1.173026E+00   7.675710E+00   4.189679E+00   1.390570E+00   4.973951E+00   1.909777E+00   7.587451E-01   6.837682E+00   3.572558E-01   2.356976E-01   6.733501E+00   7.459934E-01   7.163216E-01   4.815574E+00   1.029314E+00   3.985290E+00   8.218796E+00   2.622339E+00   8.206543E-01   9.930064E+00   7.753826E+00   2.755588E+00   9.890649E+00   2.963594E+00   1.355075E+00   7.540814E+00   1.222436E+00   2.779577E-01   7.885784E+00   5.652935E-01   2.901361E-01   9.188330E+00   6.032550E-01   4.088284E-01   1.025944E+01   5.413504E-01   2.516645E-01   1.084811E+01   8.773261E-01   3.327818E-01   1.135975E+01   8.312868E-01   2.075748E-01   1.180437E+01   8.586369E-01   2.025601E-01   1.225452E+01   8.911313E-01   2.186253E-01   1.270981E+01   8.373613E-01   2.998469E-01   1.316238E+01   8.095298E-01   2.891889E-01   1.366042E+01   8.343548E-01   2.192452E-01   1.410628E+01   8.086202E-01   4.213386E-01   1.458450E+01   6.521232E-01   4.890743E-01   2.003136E-01   1.999898E-01   6.685460E-01   1.096247E+00   1.997817E-01   6.486996E-01   1.575943E+00   2.014627E-01   5.591259E-01   2.055575E+00   2.024928E-01   5.362144E-01   2.536270E+00   2.029092E-01   5.358672E-01   3.031747E+00   2.162282E-01   5.903698E-01   3.648111E+00   1.996270E-01   6.711380E-01   4.385609E+00   1.995859E-01   5.819510E-01   4.775677E+00   1.995757E-01   4.915459E-01   5.316745E+00   1.996236E-01   6.405469E-01   5.744871E+00   2.003804E-01   6.012578E-01   7.473706E+00   1.545478E+00   1.067774E+00   7.720356E+00   1.807059E+00   7.603545E-01   6.015822E+00   3.399753E+00   1.948627E+00   1.000763E+01   1.360988E+01   1.731848E+00   7.075913E+00   2.088093E+01   1.752820E+00   6.466709E+00   1.211167E+00   1.807196E+00   6.031641E+00   2.377740E+01   1.161429E+00   8.085838E+00   2.739182E+01   1.942623E+00   6.577362E+00   2.010995E+01   3.205897E+00   7.826055E+00   2.130649E+01   1.605660E+00   5.448456E+00   8.596986E+00   1.518345E+00   9.357844E+00   2.988368E+00   1.419650E+00   8.518478E+00   2.061873E-01   7.236177E-01   9.084725E+00   2.003001E-01   6.072752E-01   9.472672E+00   1.999947E-01   9.105794E-01   1.066538E+01   1.996285E-01   5.478335E-01   1.109676E+01   1.996803E-01   5.307258E-01   1.159571E+01   1.998148E-01   5.270972E-01   1.197698E+01   1.996962E-01   7.081854E-01   1.246472E+01   1.997679E-01   7.788383E-01   1.290297E+01   1.998506E-01   7.396192E-01   1.328429E+01   1.997473E-01   8.672318E-01   1.395813E+01   1.995296E-01   6.614882E-01   1.449178E+01   1.995796E-01   7.407593E-01   4.355334E-01   4.928074E-01   5.300618E-01   5.560387E-01   1.994648E-01   9.710706E-01   1.377915E+00   4.398887E-01   8.129264E-01   1.810598E+00   5.163736E-01   6.426522E-01   2.279481E+00   5.486367E-01   5.729652E-01   2.777513E+00   5.255935E-01   5.209509E-01   3.309595E+00   2.619631E-01   8.766401E-01   4.009790E+00   3.341268E-01   5.670287E-01   4.606526E+00   5.437040E-01   6.046283E-01   5.057747E+00   4.806966E-01   5.239140E-01   5.604159E+00   1.999125E-01   9.855706E-01   6.486420E+00   2.014616E-01   8.632434E-01   8.796277E+00   4.894519E+00   1.558392E+00   8.537769E+00   7.209702E+00   1.250464E+00   9.899184E+00   1.011108E+01   9.762846E-01   4.458692E+00   1.226481E+01   1.589736E+00   2.870825E+00   8.009989E-01   9.893017E-01   4.104477E+00   8.438135E-01   2.014762E-01   1.258757E+01   7.228501E+00   1.434281E+00   9.536698E+00   7.098734E-01   7.142681E-01   1.086390E+01   1.228361E+01   2.274345E+00   6.913815E+00   6.654170E+00   1.454273E+00   8.197252E+00   4.148538E+00   1.037754E+00   8.036801E+00   8.749689E-01   7.066956E-01   9.457056E+00   3.278169E-01   5.315263E-01   9.849038E+00   2.015696E-01   5.550955E-01   1.088121E+01   5.363233E-01   5.404673E-01   1.134680E+01   5.125739E-01   5.399740E-01   1.182817E+01   5.251455E-01   5.299206E-01   1.225197E+01   4.278466E-01   5.284901E-01   1.266270E+01   4.352171E-01   5.232863E-01   1.318025E+01   4.084386E-01   5.408757E-01   1.356637E+01   2.247065E-01   5.847585E-01   1.424183E+01   4.714696E-01   5.884386E-01   1.480000E+01   1.998072E-01   4.858899E-01   5.557665E-01   6.957907E-01   8.566701E-01   8.615429E-01   4.388364E-01   8.723649E-01   1.467024E+00   7.379829E-01   5.600374E-01   2.077426E+00   6.762787E-01   9.116890E-01   2.454027E+00   5.349099E-01   1.008568E+00   2.696572E+00   9.729630E-01   2.312903E-01   3.113726E+00   6.333202E-01   7.145153E-01   3.815320E+00   5.255899E-01   8.923199E-01   4.126844E+00   6.943741E-01   7.032669E-01   5.253696E+00   5.045753E-01   8.915928E-01   5.519232E+00   5.262228E-01   5.291184E-01   6.006292E+00   2.173213E-01   9.071084E-01   6.949771E+00   3.743434E-01   6.959714E-01   8.143097E+00   8.243229E+00   1.204765E+00   6.331230E+00   4.058245E+00   9.820538E-01   5.709825E+00   5.992480E-01   8.830357E-01   2.925043E+00   8.279709E-01   1.495942E+00   4.467258E+00   8.921786E-01   1.404274E+00   8.675889E+00   2.092120E+00   5.694134E-01   8.794767E+00   5.971616E+00   8.936312E-01   9.449578E+00   1.444880E+01   9.786619E-01   1.145246E+01   1.081370E+00   2.436071E+00   7.981555E+00   9.138824E+00   1.306816E+00   8.349991E+00   2.464924E+00   1.190822E+00   8.777981E+00   4.493632E-01   5.400139E-01   9.785464E+00   5.676741E-01   4.087949E-01   1.025476E+01   2.366030E-01   5.415013E-01   1.068746E+01   7.877793E-01   7.953999E-01   1.157978E+01   8.370975E-01   5.600595E-01   1.203908E+01   8.637972E-01   5.570319E-01   1.245118E+01   7.537549E-01   6.479180E-01   1.293436E+01   7.165612E-01   6.080731E-01   1.346694E+01   5.808982E-01   7.593972E-01   1.382952E+01   5.715748E-01   5.917610E-01   1.480000E+01   4.752867E-01   7.758436E-01   2.005465E-01   2.020105E-01   1.159402E+00   1.133201E+00   2.004495E-01   1.046892E+00   1.532902E+00   2.004420E-01   1.092260E+00   2.289067E+00   2.001673E-01   8.613722E-01   3.018111E+00   1.988418E-01  
[...]
<PointData Scalars="Diameter" Vectors="Velocity">
<DataArray type="Float32" Name="Diameter" format="ascii">
  4.000000E-01   4.000000E-01   4.000000E-01   4.000000E-01   4.000000E-01   4.000000E-01   4.000000E-01   4.000000E-01   4.000000E-01   4.000000E-01   4.000000E-01   4.000000E-01   4.000000E-01   4.000000E-01   4.000000E-01   4.000000E-01   4.000000E-01   4.000000E-01   4.000000E-01   4.000000E-01   4.000000E-01   4.000000E-01   4.000000E-01   4.000000E-01   4.000000E-01   4.000000E-01   4.000000E-01   4.000000E-01   4.000000E-01   4.000000E-01   4.000000E-01   4.000000E-01   4.000000E-01   4.000000E-01   4.000000E-01   4.000000E-01   4.000000E-01   4.000000E-01   4.000000E-01   4.000000E-01   4.000000E-01   4.000000E-01   4.000000E-01   4.000000E-01   4.000000E-01   4.000000E-01   4.000000E-01   4.000000E-01   4.000000E-01   4.000000E-01   4.000000E-01   4.000000E-01   4.000000E-01   4.000000E-01   4.000000E-01   4.000000E-01   4.000000E-01   4.000000E-01   4.000000E-01   4.000000E-01   4.000000E-01   4.000000E-01   4.000000E-01   4.000000E-01   4.000000E-01   4.000000E-01   4.000000E-01   4.000000E-01   4.000000E-01   4.000000E-01   4.000000E-01   4.000000E-01   4.000000E-01   4.000000E-01   4.000000E-01   4.000000E-01   4.000000E-01   4.000000E-01   4.000000E-01   4.000000E-01   4.000000E-01   4.000000E-01   4.000000E-01   4.000000E-01   4.000000E-01   4.000000E-01   4.000000E-01   4.000000E-01   4.000000E-01   4.000000E-01   4.000000E-01   4.000000E-01   4.000000E-01   4.000000E-01   4.000000E-01   4.000000E-01   4.000000E-01   4.000000E-01   4.000000E-01   4.000000E-01   4.000000E-01   4.000000E-01   4.000000E-01   4.000000E-01   4.000000E-01   4.000000E-01   4.000000E-01   4.000000E-01   4.000000E-01   4.000000E-01   4.000000E-01   4.000000E-01   4.000000E-01   4.000000E-01   4.000000E-01   4.000000E-01   4.000000E-01   4.000000E-01   4.000000E-01   4.000000E-01   4.000000E-01   4.000000E-01   4.000000E-01   4.000000E-01   4.000000E-01   4.000000E-01   4.000000E-01   4.000000E-01   4.000000E-01   4.000000E-01   4.000000E-01   4.000000E-01   4.000000E-01   4.000000E-01   4.000000E-01   4.000000E-01   4.000000E-01   4.000000E-01   4.000000E-01   4.000000E-01   4.000000E-01   4.000000E-01   4.000000E-01   4.000000E-01   4.000000E-01   4.000000E-01   4.000000E-01   4.000000E-01   4.000000E-01   4.000000E-01   4.000000E-01   4.000000E-01   4.000000E-01   4.000000E-01   4.000000E-01   4.000000E-01   4.000000E-01   4.000000E-01   4.000000E-01   4.000000E-01   4.000000E-01   4.000000E-01   4.000000E-01   4.000000E-01   4.000000E-01   4.000000E-01   4.000000E-01   4.000000E-01   4.000000E-01   4.000000E-01   4.000000E-01   4.000000E-01   4.000000E-01   4.000000E-01   4.000000E-01   4.000000E-01   4.000000E-01   4.000000E-01   4.000000E-01   4.000000E-01   4.000000E-01   4.000000E-01   4.000000E-01   4.000000E-01   4.000000E-01   4.000000E-01   4.000000E-01   4.000000E-01   4.000000E-01   4.000000E-01   4.000000E-01   4.000000E-01   4.000000E-01   4.000000E-01   4.000000E-01   4.000000E-01   4.000000E-01   4.000000E-01   4.000000E-01   4.000000E-01   4.000000E-01   4.000000E-01   4.000000E-01   4.000000E-01   4.000000E-01   4.000000E-01   4.000000E-01   4.000000E-01   4.000000E-01   4.000000E-01   4.000000E-01   4.000000E-01   4.000000E-01   4.000000E-01   4.000000E-01   4.000000E-01   4.000000E-01   4.000000E-01   4.000000E-01   4.000000E-01   4.000000E-01   4.000000E-01   4.000000E-01   4.000000E-01   4.000000E-01   4.000000E-01   4.000000E-01   4.000000E-01   4.000000E-01   4.000000E-01   4.000000E-01   4.000000E-01   4.000000E-01   4.000000E-01   4.000000E-01   4.000000E-01   4.000000E-01   4.000000E-01   4.000000E-01   4.000000E-01   4.000000E-01   4.000000E-01   4.000000E-01   4.000000E-01   4.000000E-01   4.000000E-01   4.000000E-01   4.000000E-01   4.000000E-01   4.000000E-01   4.000000E-01   4.000000E-01   4.000000E-01   4.000000E-01   4.000000E-01   4.000000E-01   4.000000E-01   4.000000E-01   4.000000E-01   4.000000E-01   4.000000E-01   4.000000E-01   4.000000E-01   4.000000E-01   4.000000E-01   4.000000E-01   4.000000E-01   4.000000E-01   4.000000E-01   4.000000E-01   4.000000E-01   4.000000E-01   4.000000E-01   4.000000E-01   4.000000E-01   4.000000E-01   4.000000E-01   4.000000E-01   4.000000E-01   4.000000E-01   4.000000E-01   4.000000E-01   4.000000E-01   4.000000E-01   4.000000E-01   4.000000E-01   4.000000E-01   4.000000E-01   4.000000E-01   4.000000E-01   4.000000E-01   4.000000E-01   4.000000E-01   4.000000E-01   4.000000E-01   4.000000E-01   4.000000E-01   4.000000E-01   4.000000E-01   4.000000E-01   4.000000E-01   4.000000E-01   4.000000E-01   4.000000E-01   4.000000E-01   4.000000E-01   4.000000E-01   4.000000E-01   4.000000E-01   4.000000E-01   4.000000E-01   4.000000E-01   4.000000E-01   4.000000E-01   4.000000E-01   4.000000E-01   4.000000E-01   4.000000E-01   4.000000E-01   4.000000E-01   4.000000E-01   4.000000E-01   4.000000E-01   4.000000E-01   4.000000E-01   4.000000E-01   4.000000E-01   4.000000E-01   4.000000E-01   4.000000E-01   4.000000E-01   4.000000E-01   4.000000E-01   4.000000E-01   4.000000E-01   4.000000E-01   4.000000E-01   4.000000E-01   4.000000E-01   4.000000E-01   4.000000E-01   4.000000E-01   4.000000E-01   4.000000E-01   4.000000E-01   4.000000E-01   4.000000E-01   4.000000E-01   4.000000E-01   4.000000E-01   4.000000E-01   4.000000E-01   4.000000E-01   4.000000E-01   4.000000E-01   4.000000E-01   4.000000E-01   4.000000E-01   4.000000E-01   4.000000E-01   4.000000E-01   4.000000E-01   4.000000E-01   4.000000E-01   4.000000E-01   4.000000E-01   4.000000E-01   4.000000E-01   4.000000E-01   4.000000E-01   4.000000E-01   4.000000E-01   4.000000E-01   4.000000E-01   4.000000E-01   4.000000E-01   4.000000E-01   4.000000E-01   4.000000E-01   4.000000E-01   4.000000E-01   4.000000E-01   4.000000E-01   4.000000E-01   4.000000E-01   4.000000E-01   4.000000E-01   4.000000E-01   4.000000E-01   4.000000E-01   4.000000E-01   4.000000E-01   4.000000E-01   4.000000E-01   4.000000E-01   4.000000E-01   4.000000E-01   4.000000E-01   4.000000E-01   4.000000E-01   4.000000E-01   4.000000E-01   4.000000E-01   4.000000E-01   4.000000E-01   4.000000E-01   4.000000E-01   4.000000E-01   4.000000E-01   4.000000E-01   4.000000E-01   4.000000E-01   4.000000E-01   4.000000E-01   4.000000E-01   4.000000E-01   4.000000E-01   4.000000E-01   4.000000E-01   4.000000E-01   4.000000E-01   4.000000E-01   4.000000E-01   4.000000E-01   4.000000E-01   4.000000E-01   4.000000E-01   4.000000E-01   4.000000E-01   4.000000E-01   4.000000E-01   4.000000E-01   4.000000E-01   4.000000E-01   4.000000E-01   4.000000E-01   4.000000E-01   4.000000E-01   4.000000E-01   4.000000E-01   4.000000E-01   4.000000E-01   4.000000E-01   4.000000E-01   4.000000E-01   4.000000E-01   4.000000E-01   4.000000E-01   4.000000E-01   4.000000E-01   4.000000E-01   4.000000E-01   4.000000E-01   4.000000E-01   4.000000E-01   4.000000E-01   4.000000E-01   4.000000E-01   4.000000E-01   4.000000E-01   4.000000E-01   4.000000E-01   4.000000E-01   4.000000E-01   4.000000E-01   4.000000E-01   4.000000E-01   4.000000E-01   4.000000E-01   4.000000E-01   4.000000E-01   4.000000E-01   4.000000E-01   4.000000E-01   4.000000E-01   4.000000E-01   4.000000E-01   4.000000E-01   4.000000E-01   4.000000E-01   4.000000E-01   4.000000E-01   4.000000E-01   4.000000E-01   4.000000E-01   4.000000E-01   4.000000E-01   4.000000E-01   4.000000E-01   4.000000E-01   4.000000E-01   4.000000E-01   4.000000E-01   4.000000E-01   4.000000E-01   4.000000E-01   4.000000E-01   4.000000E-01   4.000000E-01   4.000000E-01   4.000000E-01   4.000000E-01   4.000000E-01   4.000000E-01   4.000000E-01   4.000000E-01   4.000000E-01   4.000000E-01   4.000000E-01   4.000000E-01   4.000000E-01   4.000000E-01   4.000000E-01   4.000000E-01   4.000000E-01   4.000000E-01   4.000000E-01   4.000000E-01   4.000000E-01   4.000000E-01   4.000000E-01   4.000000E-01   4.000000E-01   4.000000E-01   4.000000E-01   4.000000E-01   4.000000E-01   4.000000E-01   4.000000E-01   4.000000E-01   4.000000E-01   4.000000E-01   4.000000E-01   4.000000E-01   4.000000E-01   4.000000E-01   4.000000E-01   4.000000E-01   4.000000E-01   4.000000E-01   4.000000E-01   4.000000E-01   4.000000E-01   4.000000E-01   4.000000E-01   4.000000E-01   4.000000E-01   4.000000E-01   4.000000E-01   4.000000E-01   4.000000E-01   4.000000E-01   4.000000E-01   4.000000E-01   4.000000E-01   4.000000E-01   4.000000E-01   4.000000E-01   4.000000E-01   4.000000E-01   4.000000E-01   4.000000E-01   4.000000E-01   4.000000E-01   4.000000E-01   4.000000E-01   4.000000E-01   4.000000E-01   4.000000E-01   4.000000E-01   4.000000E-01   4.000000E-01   4.000000E-01   4.000000E-01   4.000000E-01   4.000000E-01   4.000000E-01   4.000000E-01   4.000000E-01   4.000000E-01   4.000000E-01   4.000000E-01   4.000000E-01   4.000000E-01   4.000000E-01   4.000000E-01   4.000000E-01   4.000000E-01   4.000000E-01   4.000000E-01   4.000000E-01   4.000000E-01   4.000000E-01   4.000000E-01   4.000000E-01   4.000000E-01   4.000000E-01   4.000000E-01   4.000000E-01   4.000000E-01   4.000000E-01   4.000000E-01   4.000000E-01   4.000000E-01   4.000000E-01   4.000000E-01   4.000000E-01   4.000000E-01   4.000000E-01   4.000000E-01   4.000000E-01   4.000000E-01   4.000000E-01   4.000000E-01   4.000000E-01   4.000000E-01   4.000000E-01   4.000000E-01   4.000000E-01   4.000000E-01   4.000000E-01   4.000000E-01   4.000000E-01   4.000000E-01   4.000000E-01   4.000000E-01   4.000000E-01   4.000000E-01   4.000000E-01   4.000000E-01   4.000000E-01   4.000000E-01   4.000000E-01   4.000000E-01   4.000000E-01   4.000000E-01   4.000000E-01   4.000000E-01   4.000000E-01   4.000000E-01   4.000000E-01   4.000000E-01   4.000000E-01   4.000000E-01   4.000000E-01   4.000000E-01   4.000000E-01   4.000000E-01   4.000000E-01   4.000000E-01   4.000000E-01   4.000000E-01   4.000000E-01   4.000000E-01   4.000000E-01   4.000000E-01   4.000000E-01   4.000000E-01   4.000000E-01   4.000000E-01   4.000000E-01   4.000000E-01   4.000000E-01   4.000000E-01   4.000000E-01   4.000000E-01   4.000000E-01   4.000000E-01   4.000000E-01   4.000000E-01   4.000000E-01   4.000000E-01   4.000000E-01   4.000000E-01   4.000000E-01   4.000000E-01   4.000000E-01   4.000000E-01   4.000000E-01   4.000000E-01   4.000000E-01   4.000000E-01   4.000000E-01   4.000000E-01   4.000000E-01   4.000000E-01   4.000000E-01   4.000000E-01   4.000000E-01   4.000000E-01   4.000000E-01   4.000000E-01   4.000000E-01   4.000000E-01   4.000000E-01   4.000000E-01   4.000000E-01   4.000000E-01   4.000000E-01   4.000000E-01   4.000000E-01   4.000000E-01   4.000000E-01   4.000000E-01   4.000000E-01   4.000000E-01   4.000000E-01   4.000000E-01   4.000000E-01   4.000000E-01   4.000000E-01   4.000000E-01   4.000000E-01   4.000000E-01   4.000000E-01   4.000000E-01   4.000000E-01   4.000000E-01   4.000000E-01   4.000000E-01   4.000000E-01   4.000000E-01   4.000000E-01   4.000000E-01   4.000000E-01   4.000000E-01   4.000000E-01   4.000000E-01   4.000000E-01   4.000000E-01   4.000000E-01   4.000000E-01   4.000000E-01   4.000000E-01   4.000000E-01   4.000000E-01   4.000000E-01   4.000000E-01   4.000000E-01   4.000000E-01   4.000000E-01   4.000000E-01   4.000000E-01   4.000000E-01   4.000000E-01   4.000000E-01   4.000000E-01   4.000000E-01   4.000000E-01   4.000000E-01   4.000000E-01   4.000000E-01   4.000000E-01   4.000000E-01   4.000000E-01   4.000000E-01   4.000000E-01   4.000000E-01   4.000000E-01   4.000000E-01   4.000000E-01   4.000000E-01   4.000000E-01   4.000000E-01   4.000000E-01   4.000000E-01   4.000000E-01   4.000000E-01   4.000000E-01   4.000000E-01   4.000000E-01   4.000000E-01   4.000000E-01   4.000000E-01   4.000000E-01   4.000000E-01   4.000000E-01   4.000000E-01   4.000000E-01   4.000000E-01   4.000000E-01   4.000000E-01   4.000000E-01   4.000000E-01   4.000000E-01   4.000000E-01   4.000000E-01   4.000000E-01   4.000000E-01   4.000000E-01   4.000000E-01   4.000000E-01   4.000000E-01   4.000000E-01   4.000000E-01   4.000000E-01   4.000000E-01   4.000000E-01   4.000000E-01   4.000000E-01   4.000000E-01   4.000000E-01   4.000000E-01   4.000000E-01   4.000000E-01   4.000000E-01   4.000000E-01   4.000000E-01   4.000000E-01   4.000000E-01   4.000000E-01   4.000000E-01   4.000000E-01   4.000000E-01   4.000000E-01   4.000000E-01   4.000000E-01   4.000000E-01   4.000000E-01   4.000000E-01   4.000000E-01   4.000000E-01   4.000000E-01   4.000000E-01   4.000000E-01   4.000000E-01   4.000000E-01   4.000000E-01   4.000000E-01   4.000000E-01   4.000000E-01   4.000000E-01   4.000000E-01   4.000000E-01   4.000000E-01   4.000000E-01   4.000000E-01   4.000000E-01   4.000000E-01   4.000000E-01   4.000000E-01   4.000000E-01   4.000000E-01   4.000000E-01   4.000000E-01   4.000000E-01   4.000000E-01   4.000000E-01   4.000000E-01   4.000000E-01   4.000000E-01   4.000000E-01   4.000000E-01   4.000000E-01   4.000000E-01   4.000000E-01   4.000000E-01   4.000000E-01   4.000000E-01   4.000000E-01   4.000000E-01   4.000000E-01   4.000000E-01   4.000000E-01   4.000000E-01   4.000000E-01   4.000000E-01   4.000000E-01   4.000000E-01   4.000000E-01   4.000000E-01   4.000000E-01   4.000000E-01   4.000000E-01   4.000000E-01   4.000000E-01   4.000000E-01   4.000000E-01   4.000000E-01   4.000000E-01   4.000000E-01   4.000000E-01   4.000000E-01   4.000000E-01   4.000000E-01   4.000000E-01   4.000000E-01   4.000000E-01   4.000000E-01   4.000000E-01   4.000000E-01   4.000000E-01   4.000000E-01   4.000000E-01   4.000000E-01   4.000000E-01   4.000000E-01   4.000000E-01   4.000000E-01   4.000000E-01   4.000000E-01   4.000000E-01   4.000000E-01   4.000000E-01   4.000000E-01   4.000000E-01   4.000000E-01   4.000000E-01   4.000000E-01   4.000000E-01   4.000000E-01   4.000000E-01   4.000000E-01   4.000000E-01   4.000000E-01   4.000000E-01   4.000000E-01   4.000000E-01   4.000000E-01   4.000000E-01   4.000000E-01   4.000000E-01   4.000000E-01   4.000000E-01   4.000000E-01   4.000000E-01   4.000000E-01   4.000000E-01   4.000000E-01   4.000000E-01   4.000000E-01   4.000000E-01   4.000000E-01   4.000000E-01   4.000000E-01   4.000000E-01   4.000000E-01   4.000000E-01   4.000000E-01   4.000000E-01   4.000000E-01   4.000000E-01   4.000000E-01   4.000000E-01   4.000000E-01   4.000000E-01   4.000000E-01   4.000000E-01   4.000000E-01   4.000000E-01   4.000000E-01   4.000000E-01   4.000000E-01   4.000000E-01   4.000000E-01   4.000000E-01   4.000000E-01   4.000000E-01   4.000000E-01   4.000000E-01   4.000000E-01   4.000000E-01   4.000000E-01   4.000000E-01   4.000000E-01   4.000000E-01   4.000000E-01   4.000000E-01   4.000000E-01   4.000000E-01   4.000000E-01   4.000000E-01   4.000000E-01   4.000000E-01   4.000000E-01   4.000000E-01   4.000000E-01   4.000000E-01   4.000000E-01   4.000000E-01   4.000000E-01   4.000000E-01   4.000000E-01   4.000000E-01   4.000000E-01   4.000000E-01   4.000000E-01   4.000000E-01   4.000000E-01   4.000000E-01   4.000000E-01   4.000000E-01   4.000000E-01   4.000000E-01   4.000000E-01   4.000000E-01   4.000000E-01   4.000000E-01   4.000000E-01   4.000000E-01   4.000000E-01   4.000000E-01   4.000000E-01   4.000000E-01   4.000000E-01   4.000000E-01   4.000000E-01   4.000000E-01   4.000000E-01   4.000000E-01   4.000000E-01   4.000000E-01   4.000000E-01   4.000000E-01   4.000000E-01   4.000000E-01   4.000000E-01   4.000000E-01   4.000000E-01   4.000000E-01   4.000000E-01   4.000000E-01   4.000000E-01   4.000000E-01   4.000000E-01   4.000000E-01   4.000000E-01   4.000000E-01   4.000000E-01   4.000000E-01   4.000000E-01   4.000000E-01   4.000000E-01   4.000000E-01   4.000000E-01   4.000000E-01   4.000000E-01   4.000000E-01   4.000000E-01   4.000000E-01   4.000000E-01   4.000000E-01   4.000000E-01   4.000000E-01   4.000000E-01   4.000000E-01   4.000000E-01   4.000000E-01   4.000000E-01   4.000000E-01   4.000000E-01   4.000000E-01   4.000000E-01   4.000000E-01   4.000000E-01   4.000000E-01   4.000000E-01   4.000000E-01   4.000000E-01   4.000000E-01   4.000000E-01   4.000000E-01   4.000000E-01   4.000000E-01   4.000000E-01   4.000000E-01   4.000000E-01   4.000000E-01   4.000000E-01   4.000000E-01   4.000000E-01   4.000000E-01   4.000000E-01   4.000000E-01   4.000000E-01   4.000000E-01   4.000000E-01   4.000000E-01   4.000000E-01   4.000000E-01   4.000000E-01   4.000000E-01   4.000000E-01   4.000000E-01   4.000000E-01   4.000000E-01   4.000000E-01   4.000000E-01   4.000000E-01   4.000000E-01   4.000000E-01   4.000000E-01   4.000000E-01   4.000000E-01   4.000000E-01   4.000000E-01   4.000000E-01   4.000000E-01   4.000000E-01   4.000000E-01   4.000000E-01   4.000000E-01   4.000000E-01   4.000000E-01   4.000000E-01   4.000000E-01   4.000000E-01   4.000000E-01   4.000000E-01   4.000000E-01   4.000000E-01   4.000000E-01   4.000000E-01   4.000000E-01   4.000000E-01   4.000000E-01   4.000000E-01   4.000000E-01   4.000000E-01   4.000000E-01   4.000000E-01   4.000000E-01   4.000000E-01   4.000000E-01   4.000000E-01   4.000000E-01   4.000000E-01   4.000000E-01   4.000000E-01   4.000000E-01   4.000000E-01   4.000000E-01   4.000000E-01   4.000000E-01   4.000000E-01   4.000000E-01   4.000000E-01   4.000000E-01   4.000000E-01   4.000000E-01   4.000000E-01   4.000000E-01   4.000000E-01   4.000000E-01   4.000000E-01   4.000000E-01   4.000000E-01   4.000000E-01   4.000000E-01   4.000000E-01   4.000000E-01   4.000000E-01   4.000000E-01   4.000000E-01   4.000000E-01   4.000000E-01   4.000000E-01   4.000000E-01   4.000000E-01   4.000000E-01   4.000000E-01   4.000000E-01   4.000000E-01   4.000000E-01   4.000000E-01   4.000000E-01   4.000000E-01   4.000000E-01   4.000000E-01   4.000000E-01   4.000000E-01   4.000000E-01   4.000000E-01   4.000000E-01   4.000000E-01   4.000000E-01   4.000000E-01   4.000000E-01   4.000000E-01   4.000000E-01   4.000000E-01   4.000000E-01   4.000000E-01   4.000000E-01   4.000000E-01   4.000000E-01   4.000000E-01   4.000000E-01   4.000000E-01   4.000000E-01   4.000000E-01   4.000000E-01   4.000000E-01   4.000000E-01   4.000000E-01   4.000000E-01   4.000000E-01   4.000000E-01   4.000000E-01   4.000000E-01   4.000000E-01   4.000000E-01   4.000000E-01   4.000000E-01   4.000000E-01   4.000000E-01   4.000000E-01   4.000000E-01   4.000000E-01   4.000000E-01   4.000000E-01   4.000000E-01   4.000000E-01   4.000000E-01   4.000000E-01   4.000000E-01   4.000000E-01   4.000000E-01   4.000000E-01   4.000000E-01   4.000000E-01   4.000000E-01   4.000000E-01   4.000000E-01   4.000000E-01   4.000000E-01   4.000000E-01   4.000000E-01   4.000000E-01   4.000000E-01   4.000000E-01   4.000000E-01   4.000000E-01   4.000000E-01   4.000000E-01   4.000000E-01   4.000000E-01   4.000000E-01   4.000000E-01   4.000000E-01   4.000000E-01   4.000000E-01   4.000000E-01   4.000000E-01   4.000000E-01   4.000000E-01   4.000000E-01   4.000000E-01   4.000000E-01   4.000000E-01   4.000000E-01   4.000000E-01   4.000000E-01   4.000000E-01   4.000000E-01   4.000000E-01   4.000000E-01   4.000000E-01   4.000000E-01   4.000000E-01   4.000000E-01   4.000000E-01   4.000000E-01   4.000000E-01   4.000000E-01   4.000000E-01   4.000000E-01   4.000000E-01   4.000000E-01   4.000000E-01   4.000000E-01   4.000000E-01   4.000000E-01   4.000000E-01   4.000000E-01   4.000000E-01   4.000000E-01   4.000000E-01   4.000000E-01   4.000000E-01   4.000000E-01   4.000000E-01   4.000000E-01   4.000000E-01   4.000000E-01   4.000000E-01   4.000000E-01   4.000000E-01   4.000000E-01   4.000000E-01   4.000000E-01   4.000000E-01   4.000000E-01   4.000000E-01   4.000000E-01   4.000000E-01   4.000000E-01   4.000000E-01   4.000000E-01   4.000000E-01   4.000000E-01   4.000000E-01   4.000000E-01   4.000000E-01   4.000000E-01   4.000000E-01   4.000000E-01   4.000000E-01   4.000000E-01   4.000000E-01   4.000000E-01   4.000000E-01   4.000000E-01   4.000000E-01   4.000000E-01   4.000000E-01   4.000000E-01   4.000000E-01   4.000000E-01   4.000000E-01   4.000000E-01   4.000000E-01   4.000000E-01   4.000000E-01   4.000000E-01   4.000000E-01   