<?xml version="1.0"?>
<!-- Time =  2.4007176260279670E+00s -->
<VTKFile type="PolyData" version="0.1" byte_order="LittleEndian">
<PolyData>
<Piece NumberOfPoints="0000002400" NumberOfVerts="0" NumberOfLines="0" NumberOfStrips="0" NumberOfPolys="0">
<Points>
<DataArray type="Float32" Name="Position" NumberOfComponents="3" format="ascii">
  1.656013E+00   2.243857E-01   2.382756E-01   1.099712E+01   1.273732E+01   4.661044E+00   9.322552E+00   6.300999E-01   3.028352E+00   6.543386E+00   1.110111E+00   3.885587E+00   6.205555E+00   2.033943E-01   3.055222E+00   1.220676E+01   1.227878E+01   1.526946E+00   1.428112E+01   1.280449E+00   2.911317E+00   1.172030E+01   7.425904E-01   3.766271E+00   1.456706E+01   2.186794E-01   2.890145E+00   7.572636E+00   2.939873E+00   3.335313E+00   8.945277E+00   8.183373E+00   4.862994E+00   1.089446E+00   1.308301E+01   1.095171E+00   1.040184E+01   8.150614E+00   3.947335E+00   1.644688E+00   1.449995E+00   6.678376E-01   4.908005E+00   5.649840E-01   3.975419E+00   9.391008E+00   1.715022E+01   8.730428E-01   7.906207E+00   1.844902E+00   3.145937E-01   1.920823E+00   9.978885E-01   3.212314E+00   1.085185E+01   7.181777E+00   2.306289E+00   6.545485E+00   1.233261E+00   3.000856E+00   1.473997E+01   3.223711E+00   3.980584E+00   2.120791E+00   7.239820E+00   4.780983E+00   4.795158E+00   6.089598E+00   4.584869E-01   2.290319E+00   7.376747E-01   3.923146E+00   1.315559E+01   6.475677E-01   1.385586E+00   1.716590E+00   2.220844E-01   4.463807E+00   1.282858E+01   1.578919E+00   2.768350E+00   7.454087E+00   4.113521E+00   4.979641E+00   3.589167E+00   2.178573E-01   1.635361E+00   5.203818E+00   2.033584E-01   2.553999E+00   7.670306E+00   8.757281E+00   3.237120E+00   2.911799E+00   8.742130E-01   5.977485E-01   3.413574E+00   6.796123E-01   4.708039E+00   3.427332E+00   2.224052E-01   4.319775E+00   6.216259E+00   6.502576E-01   2.102910E-01   9.235007E+00   4.811794E+00   4.372558E+00   1.224611E+01   7.772783E-01   4.445377E+00   3.779170E+00   9.596781E-01   3.767777E-01   3.683268E+00   5.290377E-01   2.457273E+00   5.391736E-01   2.943559E+00   1.052758E+00   7.093377E+00   9.694301E-01   9.979631E-01   1.402173E+00   1.012504E+01   1.086784E+00   1.393281E+00   1.188618E+00   4.433094E+00   6.079632E+00   2.007969E-01   8.522813E-01   1.445629E+01   1.155132E+01   2.798098E+00   5.647538E+00   1.523859E+01   2.973385E+00   2.415826E+00   5.164775E+00   7.334307E-01   6.807916E+00   1.199103E+00   4.543023E+00   2.593298E+00   2.001720E-01   1.355571E+00   4.495155E+00   8.237163E-01   4.678710E+00   1.384565E+01   3.168602E-01   2.142863E+00   1.117374E+01   2.924429E+00   7.803695E-01   1.443888E+01   2.833029E-01   4.295048E+00   7.532434E+00   1.062326E+01   2.049037E+00   2.225390E+00   8.337961E-01   1.788218E+00   1.848098E+00   6.425754E-01   2.066177E-01   1.022708E+01   1.728467E+01   1.892875E+00   6.266421E+00   2.310560E+00   8.131439E-01   4.298042E+00   5.856235E+00   1.435063E+00   2.969375E+00   4.775844E+00   8.560955E-01   8.932728E-01   6.723647E+00   8.715904E-01   1.186569E+01   2.413919E+00   1.453499E+00   7.005554E+00   2.423279E+00   8.108710E-01   9.190827E+00   4.509765E-01   3.669531E+00   6.532103E+00   1.108117E+01   3.036811E+00   1.410903E+01   7.724445E+00   4.309832E+00   3.276491E+00   5.745726E-01   8.470787E-01   4.830435E-01   1.191646E+01   4.414471E+00   2.643558E+00   9.937420E-01   4.660145E+00   6.533248E+00   5.331583E+00   3.652015E+00   8.603650E+00   1.805136E+01   3.535904E+00   6.695499E+00   4.752946E-01   3.631329E+00   1.339430E+01   1.154630E+01   4.856698E-01   7.355521E+00   1.150871E+00   2.883288E+00   7.713501E+00   2.013688E+00   3.982064E+00   6.248185E+00   2.007059E-01   1.634327E+00   6.753485E+00   1.895818E+01   2.389658E+00   3.260746E+00   1.865762E+01   4.499768E+00   6.133014E+00   9.315998E+00   1.384091E+00   1.232324E+01   2.033998E+00   2.540020E+00   1.085402E+01   8.102192E-01   2.770459E+00   8.433611E+00   3.661230E-01   4.954840E+00   3.940181E+00   6.489943E-01   1.708980E+00   2.564266E+00   1.001237E+01   2.078117E+00   4.512523E+00   7.836174E+00   1.668564E+00   3.266145E+00   6.489269E-01   4.315598E+00   7.013216E+00   5.806289E-01   1.279058E+00   4.482173E+00   2.225418E-01   1.040119E+00   1.388078E+01   8.152912E-01   3.384003E+00   5.172911E+00   3.428848E+00   3.884188E-01   4.853489E+00   5.336007E-01   4.700278E+00   8.648883E+00   7.101776E+00   2.108999E+00   5.014463E+00   9.647771E+00   4.684081E+00   9.047230E+00   1.072586E+00   3.585540E+00   6.791367E+00   2.075274E-01   3.331430E+00   5.427581E-01   2.011740E-01   4.359430E+00   1.347039E+01   1.580970E+00   5.247014E-01   3.603086E+00   8.652505E-01   2.231036E+00   8.567483E+00   1.951120E+00   2.215457E-01   1.318019E+00   5.031732E-01   3.206793E+00   6.094184E+00   5.434169E-01   3.266798E+00   7.018397E+00   2.636905E-01   1.696621E+00   2.190366E+00   5.906061E-01   7.091783E-01   1.037165E+00   5.112129E-01   1.230349E+00   3.718493E+00   8.969896E-01   3.792656E+00   1.102713E+01   9.458628E+00   3.575079E-01   1.334698E+01   5.305673E+00   2.078721E+00   1.464997E+01   6.129071E-01   1.119866E+00   4.256353E+00   3.818393E+00   3.235199E+00   1.199440E+01   6.878986E-01   3.109397E+00   7.470484E-01   2.044892E+00   2.114139E+00   6.509094E+00   1.568790E+00   5.875344E-01   1.573006E+00   4.085352E+00   1.648429E+00   1.323361E+01   1.099879E+00   1.685720E+00   1.273942E+01   7.512895E-01   2.727051E+00   7.100396E+00   1.883038E+00   2.272676E+00   1.466785E+00   5.936405E+00   3.737462E+00   5.533327E+00   6.204612E-01   3.364733E+00   2.585578E+00   2.047025E+00   3.612993E-01   8.487808E+00   8.734400E+00   1.730976E+00   5.303879E-01   1.083389E+00   4.538917E+00   6.183014E+00   5.530362E-01   4.692868E+00   6.495477E+00   2.750657E+00   1.200726E+00   6.016959E+00   6.590154E+00   4.380864E+00   4.957127E+00   7.264018E+00   1.396582E+00   2.801735E+00   5.674138E-01   3.071755E+00   1.395002E+00   1.510033E+00   1.693732E+00   4.793631E+00   5.818879E+00   3.051960E+00   1.162794E+00   4.697990E-01   1.632185E+00   8.997658E+00   1.764718E+01   2.857271E-01   7.342527E+00   6.106812E+00   1.144091E+00   6.014430E+00   6.487506E+00   3.349922E+00   6.117524E+00   2.050260E-01   3.480461E+00   1.172807E+01   1.343037E+01   2.265403E-01   1.214670E+00   1.999821E-01   2.932698E+00   4.723123E+00   2.122814E-01   6.544362E-01   3.218819E+00   5.477811E-01   3.290236E+00   3.898376E+00   2.034179E-01   2.591837E+00   6.099017E+00   7.008199E-01   2.225389E+00   3.698622E+00   8.880200E-01   2.715435E+00   2.147508E+00   2.080271E-01   3.853055E+00   5.671382E+00   1.169060E+01   3.028736E+00   1.022670E+00   1.997604E-01   1.896388E+00   2.160558E+00   1.100714E+01   4.575175E+00   8.754932E+00   2.636752E-01   2.996480E+00   2.734311E+00   2.901313E+00   8.026218E-01   3.456493E+00   3.473005E+00   3.715221E+00   2.294773E+00   1.984175E-01   1.652536E+00   1.043424E+01   8.147017E-01   3.295125E+00   8.596167E+00   2.011539E+01   2.085652E+00   4.082234E+00   5.395876E-01   1.169640E+00   1.077053E+01   3.207255E-01   1.501345E+00   9.616107E+00   3.018950E-01   3.865280E+00   2.297356E-01   5.385067E-01   4.393612E-01   1.014907E+00   6.257524E-01   2.997274E-01   1.468899E+00   5.587495E-01   2.323435E+00   5.628875E-01   5.037073E-01   7.899019E-01   5.014071E+00   2.090691E-01   9.279664E-01   9.176600E+00   1.548459E+01   2.390798E-01   2.622436E+00   1.289422E+01   1.195766E+00   1.296523E+01   5.069067E+00   2.837232E+00   3.823050E+00   2.846269E-01   4.514055E+00   4.084438E+00   4.618858E-01   3.849743E+00   8.212422E+00   7.925663E+00   3.194311E+00   5.461596E+00   2.017615E-01   1.006136E+00   7.383715E+00   1.630649E+00   3.108334E+00   2.148190E+00   1.161930E+01   1.919055E+00   1.062445E+01   7.226169E+00   9.833158E-01   5.416696E+00   2.013852E-01   2.051914E-01   8.843677E+00   3.243108E+00   7.246754E-01   4.414313E-01   3.098664E+00   2.888311E+00   3.586551E+00   2.276091E-01   1.006163E+00   8.962696E+00   6.529670E-01   1.441630E+00   3.676299E+00   1.318690E+01   3.524741E+00   3.656649E+00   2.845458E+00   4.830104E+00   7.771164E+00   1.509544E+00   4.232243E+00   7.461575E-01   2.647983E-01   1.099762E+00   2.478189E+00   8.682452E+00   4.130460E+00   3.569104E+00   1.273238E+00   2.288744E+00   3.879812E+00   2.076835E-01   5.706498E-01   8.574358E+00   1.068198E+01   8.206445E-01   4.948620E+00   7.913951E+00   4.139163E+00   2.327847E-01   5.560607E-01   3.497546E+00   7.690708E+00   2.215233E+00   4.817015E+00   1.065135E+01   2.831443E+00   4.081464E+00   5.889376E+00   5.058116E-01   2.509908E+00   8.142989E-01   1.013486E+00   3.455676E+00   1.352026E+00   8.447027E-01   4.679265E-01   8.549863E-01   1.464629E+01   3.028770E+00   4.518251E+00   5.576428E-01   2.762572E+00   7.684800E+00   5.985256E+00   1.734577E+00   3.273243E+00   4.387994E+00   1.511489E+00   8.105473E+00   1.165033E+01   1.617934E+00   7.811125E+00   5.584089E-01   4.524928E+00   5.347757E+00   4.072925E+00   3.027306E+00   8.620397E+00   1.562094E+01   6.589806E-01   2.954706E+00   2.292606E-01   2.550707E+00   2.639299E+00   7.321710E-01   1.919075E+00   2.663121E+00   1.140020E+01   2.823289E+00   2.678650E+00   1.498426E+01   7.346778E-01   8.166062E+00   9.873626E-01   3.076379E+00   1.442898E+01   3.587564E-01   3.652293E+00   5.928712E-01   2.163635E-01   4.907526E+00   4.110509E+00   5.706320E-01   5.918066E-01   1.794524E+00   5.332456E-01   4.754030E+00   3.633178E+00   1.128051E+01   4.733684E+00   9.636446E+00   9.372527E-01   3.320239E+00   1.432868E+01   2.237402E+00   3.351674E+00   6.711146E+00   9.934746E-01   2.090272E+00   1.252921E+01   9.471386E+00   2.779925E+00   1.394934E+00   1.193145E+01   3.304659E+00   4.063176E+00   1.430336E+00   2.335991E+00   6.688426E-01   1.314314E+00   2.698004E+00   7.025745E+00   2.899114E-01   3.802622E+00   6.560990E+00   9.550423E+00  
[...]
<PointData Scalars="Diameter" Vectors="Velocity">
<DataArray type="Float32" Name="Diameter" format="ascii">
  4.000000E-01   4.000000E-01   4.000000E-01   4.000000E-01   4.000000E-01   4.000000E-01   4.000000E-01   4.000000E-01   4.000000E-01   4.000000E-01   4.000000E-01   4.000000E-01   4.000000E-01   4.000000E-01   4.000000E-01   4.000000E-01   4.000000E-01   4.000000E-01   4.000000E-01   4.000000E-01   4.000000E-01   4.000000E-01   4.000000E-01   4.000000E-01   4.000000E-01   4.000000E-01   4.000000E-01   4.000000E-01   4.000000E-01   4.000000E-01   4.000000E-01   4.000000E-01   4.000000E-01   4.000000E-01   4.000000E-01   4.000000E-01   4.000000E-01   4.000000E-01   4.000000E-01   4.000000E-01   4.000000E-01   4.000000E-01   4.000000E-01   4.000000E-01   4.000000E-01   4.000000E-01   4.000000E-01   4.000000E-01   4.000000E-01   4.000000E-01   4.000000E-01   4.000000E-01   4.000000E-01   4.000000E-01   4.000000E-01   4.000000E-01   4.000000E-01   4.000000E-01   4.000000E-01   4.000000E-01   4.000000E-01   4.000000E-01   4.000000E-01   4.000000E-01   4.000000E-01   4.000000E-01   4.000000E-01   4.000000E-01   4.000000E-01   4.000000E-01   4.000000E-01   4.000000E-01   4.000000E-01   4.000000E-01   4.000000E-01   4.000000E-01   4.000000E-01   4.000000E-01   4.000000E-01   4.000000E-01   4.000000E-01   4.000000E-01   4.000000E-01   4.000000E-01   4.000000E-01   4.000000E-01   4.000000E-01   4.000000E-01   4.000000E-01   4.000000E-01   4.000000E-01   4.000000E-01   4.000000E-01   4.000000E-01   4.000000E-01   4.000000E-01   4.000000E-01   4.000000E-01   4.000000E-01   4.000000E-01   4.000000E-01   4.000000E-01   4.000000E-01   4.000000E-01   4.000000E-01   4.000000E-01   4.000000E-01   4.000000E-01   4.000000E-01   4.000000E-01   4.000000E-01   4.000000E-01   4.000000E-01   4.000000E-01   4.000000E-01   4.000000E-01   4.000000E-01   4.000000E-01   4.000000E-01   4.000000E-01   4.000000E-01   4.000000E-01   4.000000E-01   4.000000E-01   4.000000E-01   4.000000E-01   4.000000E-01   4.000000E-01   4.000000E-01   4.000000E-01   4.000000E-01   4.000000E-01   4.000000E-01   4.000000E-01   4.000000E-01   4.000000E-01   4.000000E-01   4.000000E-01   4.000000E-01   4.000000E-01   4.000000E-01   4.000000E-01   4.000000E-01   4.000000E-01   4.000000E-01   4.000000E-01   4.000000E-01   4.000000E-01   4.000000E-01   4.000000E-01   4.000000E-01   4.000000E-01   4.000000E-01   4.000000E-01   4.000000E-01   4.000000E-01   4.000000E-01   4.000000E-01   4.000000E-01   4.000000E-01   4.000000E-01   4.000000E-01   4.000000E-01   4.000000E-01   4.000000E-01   4.000000E-01   4.000000E-01   4.000000E-01   4.000000E-01   4.000000E-01   4.000000E-01   4.000000E-01   4.000000E-01   4.000000E-01   4.000000E-01   4.000000E-01   4.000000E-01   4.000000E-01   4.000000E-01   4.000000E-01   4.000000E-01   4.000000E-01   4.000000E-01   4.000000E-01   4.000000E-01   4.000000E-01   4.000000E-01   4.000000E-01   4.000000E-01   4.000000E-01   4.000000E-01   4.000000E-01   4.000000E-01   4.000000E-01   4.000000E-01   4.000000E-01   4.000000E-01   4.000000E-01   4.000000E-01   4.000000E-01   4.000000E-01   4.000000E-01   4.000000E-01   4.000000E-01   4.000000E-01   4.000000E-01   4.000000E-01   4.000000E-01   4.000000E-01   4.000000E-01   4.000000E-01   4.000000E-01   4.000000E-01   4.000000E-01   4.000000E-01   4.000000E-01   4.000000E-01   4.000000E-01   4.000000E-01   4.000000E-01   4.000000E-01   4.000000E-01   4.000000E-01   4.000000E-01   4.000000E-01   4.000000E-01   4.000000E-01   4.000000E-01   4.000000E-01   4.000000E-01   4.000000E-01   4.000000E-01   4.000000E-01   4.000000E-01   4.000000E-01   4.000000E-01   4.000000E-01   4.000000E-01   4.000000E-01   4.000000E-01   4.000000E-01   4.000000E-01   4.000000E-01   4.000000E-01   4.000000E-01   4.000000E-01   4.000000E-01   4.000000E-01   4.000000E-01   4.000000E-01   4.000000E-01   4.000000E-01   4.000000E-01   4.000000E-01   4.000000E-01   4.000000E-01   4.000000E-01   4.000000E-01   4.000000E-01   4.000000E-01   4.000000E-01   4.000000E-01   4.000000E-01   4.000000E-01   4.000000E-01   4.000000E-01   4.000000E-01   4.000000E-01   4.000000E-01   4.000000E-01   4.000000E-01   4.000000E-01   4.000000E-01   4.000000E-01   4.000000E-01   4.000000E-01   4.000000E-01   4.000000E-01   4.000000E-01   4.000000E-01   4.000000E-01   4.000000E-01   4.000000E-01   4.000000E-01   4.000000E-01   4.000000E-01   4.000000E-01   4.000000E-01   4.000000E-01   4.000000E-01   4.000000E-01   4.000000E-01   4.000000E-01   4.000000E-01   4.000000E-01   4.000000E-01   4.000000E-01   4.000000E-01   4.000000E-01   4.000000E-01   4.000000E-01   4.000000E-01   4.000000E-01   4.000000E-01   4.000000E-01   4.000000E-01   4.000000E-01   4.000000E-01   4.000000E-01   4.000000E-01   4.000000E-01   4.000000E-01   4.000000E-01   4.000000E-01   4.000000E-01   4.000000E-01   4.000000E-01   4.000000E-01   4.000000E-01   4.000000E-01   4.000000E-01   4.000000E-01   4.000000E-01   4.000000E-01   4.000000E-01   4.000000E-01   4.000000E-01   4.000000E-01   4.000000E-01   4.000000E-01   4.000000E-01   4.000000E-01   4.000000E-01   4.000000E-01   4.000000E-01   4.000000E-01   4.000000E-01   4.000000E-01   4.000000E-01   4.000000E-01   4.000000E-01   4.000000E-01   4.000000E-01   4.000000E-01   4.000000E-01   4.000000E-01   4.000000E-01   4.000000E-01   4.000000E-01   4.000000E-01   4.000000E-01   4.000000E-01   4.000000E-01   4.000000E-01   4.000000E-01   4.000000E-01   4.000000E-01   4.000000E-01   4.000000E-01   4.000000E-01   4.000000E-01   4.000000E-01   4.000000E-01   4.000000E-01   4.000000E-01   4.000000E-01   4.000000E-01   4.000000E-01   4.000000E-01   4.000000E-01   4.000000E-01   4.000000E-01   4.000000E-01   4.000000E-01   4.000000E-01   4.000000E-01   4.000000E-01   4.000000E-01   4.000000E-01   4.000000E-01   4.000000E-01   4.000000E-01   4.000000E-01   4.000000E-01   4.000000E-01   4.000000E-01   4.000000E-01   4.000000E-01   4.000000E-01   4.000000E-01   4.000000E-01   4.000000E-01   4.000000E-01   4.000000E-01   4.000000E-01   4.000000E-01   4.000000E-01   4.000000E-01   4.000000E-01   4.000000E-01   4.000000E-01   4.000000E-01   4.000000E-01   4.000000E-01   4.000000E-01   4.000000E-01   4.000000E-01   4.000000E-01   4.000000E-01   4.000000E-01   4.000000E-01   4.000000E-01   4.000000E-01   4.000000E-01   4.000000E-01   4.000000E-01   4.000000E-01   4.000000E-01   4.000000E-01   4.000000E-01   4.000000E-01   4.000000E-01   4.000000E-01   4.000000E-01   4.000000E-01   4.000000E-01   4.000000E-01   4.000000E-01   4.000000E-01   4.000000E-01   4.000000E-01   4.000000E-01   4.000000E-01   4.000000E-01   4.000000E-01   4.000000E-01   4.000000E-01   4.000000E-01   4.000000E-01   4.000000E-01   4.000000E-01   4.000000E-01   4.000000E-01   4.000000E-01   4.000000E-01   4.000000E-01   4.000000E-01   4.000000E-01   4.000000E-01   4.000000E-01   4.000000E-01   4.000000E-01   4.000000E-01   4.000000E-01   4.000000E-01   4.000000E-01   4.000000E-01   4.000000E-01   4.000000E-01   4.000000E-01   4.000000E-01   4.000000E-01   4.000000E-01   4.000000E-01   4.000000E-01   4.000000E-01   4.000000E-01   4.000000E-01   4.000000E-01   4.000000E-01   4.000000E-01   4.000000E-01   4.000000E-01   4.000000E-01   4.000000E-01   4.000000E-01   4.000000E-01   4.000000E-01   4.000000E-01   4.000000E-01   4.000000E-01   4.000000E-01   4.000000E-01   4.000000E-01   4.000000E-01   4.000000E-01   4.000000E-01   4.000000E-01   4.000000E-01   4.000000E-01   4.000000E-01   4.000000E-01   4.000000E-01   4.000000E-01   4.000000E-01   4.000000E-01   4.000000E-01   4.000000E-01   4.000000E-01   4.000000E-01   4.000000E-01   4.000000E-01   4.000000E-01   4.000000E-01   4.000000E-01   4.000000E-01   4.000000E-01   4.000000E-01   4.000000E-01   4.000000E-01   4.000000E-01   4.000000E-01   4.000000E-01   4.000000E-01   4.000000E-01   4.000000E-01   4.000000E-01   4.000000E-01   4.000000E-01   4.000000E-01   4.000000E-01   4.000000E-01   4.000000E-01   4.000000E-01   4.000000E-01   4.000000E-01   4.000000E-01   4.000000E-01   4.000000E-01   4.000000E-01   4.000000E-01   4.000000E-01   4.000000E-01   4.000000E-01   4.000000E-01   4.000000E-01   4.000000E-01   4.000000E-01   4.000000E-01   4.000000E-01   4.000000E-01   4.000000E-01   4.000000E-01   4.000000E-01   4.000000E-01   4.000000E-01   4.000000E-01   4.000000E-01   4.000000E-01   4.000000E-01   4.000000E-01   4.000000E-01   4.000000E-01   4.000000E-01   4.000000E-01   4.000000E-01   4.000000E-01   4.000000E-01   4.000000E-01   4.000000E-01   4.000000E-01   4.000000E-01   4.000000E-01   4.000000E-01   4.000000E-01   4.000000E-01   4.000000E-01   4.000000E-01   4.000000E-01   4.000000E-01   4.000000E-01   4.000000E-01   4.000000E-01   4.000000E-01   4.000000E-01   4.000000E-01   4.000000E-01   4.000000E-01   4.000000E-01   4.000000E-01   4.000000E-01   4.000000E-01   4.000000E-01   4.000000E-01   4.000000E-01   4.000000E-01   4.000000E-01   4.000000E-01   4.000000E-01   4.000000E-01   4.000000E-01   4.000000E-01   4.000000E-01   4.000000E-01   4.000000E-01   4.000000E-01   4.000000E-01   4.000000E-01   4.000000E-01   4.000000E-01   4.000000E-01   4.000000E-01   4.000000E-01   4.000000E-01   4.000000E-01   4.000000E-01   4.000000E-01   4.000000E-01   4.000000E-01   4.000000E-01   4.000000E-01   4.000000E-01   4.000000E-01   4.000000E-01   4.000000E-01   4.000000E-01   4.000000E-01   4.000000E-01   4.000000E-01   4.000000E-01   4.000000E-01   4.000000E-01   4.000000E-01   4.000000E-01   4.000000E-01   4.000000E-01   4.000000E-01   4.000000E-01   4.000000E-01   4.000000E-01   4.000000E-01   4.000000E-01   4.000000E-01   4.000000E-01   4.000000E-01   4.000000E-01   4.000000E-01   4.000000E-01   4.000000E-01   4.000000E-01   4.000000E-01   4.000000E-01   4.000000E-01   4.000000E-01   4.000000E-01   4.000000E-01   4.000000E-01   4.000000E-01   4.000000E-01   4.000000E-01   4.000000E-01   4.000000E-01   4.000000E-01   4.000000E-01   4.000000E-01   4.000000E-01   4.000000E-01   4.000000E-01   4.000000E-01   4.000000E-01   4.000000E-01   4.000000E-01   4.000000E-01   4.000000E-01   4.000000E-01   4.000000E-01   4.000000E-01   4.000000E-01   4.000000E-01   4.000000E-01   4.000000E-01   4.000000E-01   4.000000E-01   4.000000E-01   4.000000E-01   4.000000E-01   4.000000E-01   4.000000E-01   4.000000E-01   4.000000E-01   4.000000E-01   4.000000E-01   4.000000E-01   4.000000E-01   4.000000E-01   4.000000E-01   4.000000E-01   4.000000E-01   4.000000E-01   4.000000E-01   4.000000E-01   4.000000E-01   4.000000E-01   4.000000E-01   4.000000E-01   4.000000E-01   4.000000E-01   4.000000E-01   4.000000E-01   4.000000E-01   4.000000E-01   4.000000E-01   4.000000E-01   4.000000E-01   4.000000E-01   4.000000E-01   4.000000E-01   4.000000E-01   4.000000E-01   4.000000E-01   4.000000E-01   4.000000E-01   4.000000E-01   4.000000E-01   4.000000E-01   4.000000E-01   4.000000E-01   4.000000E-01   4.000000E-01   4.000000E-01   4.000000E-01   4.000000E-01   4.000000E-01   4.000000E-01   4.000000E-01   4.000000E-01   4.000000E-01   4.000000E-01   4.000000E-01   4.000000E-01   4.000000E-01   4.000000E-01   4.000000E-01   4.000000E-01   4.000000E-01   4.000000E-01   4.000000E-01   4.000000E-01   4.000000E-01   4.000000E-01   4.000000E-01   4.000000E-01   4.000000E-01   4.000000E-01   4.000000E-01   4.000000E-01   4.000000E-01   4.000000E-01   4.000000E-01   4.000000E-01   4.000000E-01   4.000000E-01   4.000000E-01   4.000000E-01   4.000000E-01   4.000000E-01   4.000000E-01   4.000000E-01   4.000000E-01   4.000000E-01   4.000000E-01   4.000000E-01   4.000000E-01   4.000000E-01   4.000000E-01   4.000000E-01   4.000000E-01   4.000000E-01   4.000000E-01   4.000000E-01   4.000000E-01   4.000000E-01   4.000000E-01   4.000000E-01   4.000000E-01   4.000000E-01   4.000000E-01   4.000000E-01   4.000000E-01   4.000000E-01   4.000000E-01   4.000000E-01   4.000000E-01   4.000000E-01   4.000000E-01   4.000000E-01   4.000000E-01   4.000000E-01   4.000000E-01   4.000000E-01   4.000000E-01   4.000000E-01   4.000000E-01   4.000000E-01   4.000000E-01   4.000000E-01   4.000000E-01   4.000000E-01   4.000000E-01   4.000000E-01   4.000000E-01   4.000000E-01   4.000000E-01   4.000000E-01   4.000000E-01   4.000000E-01   4.000000E-01   4.000000E-01   4.000000E-01   4.000000E-01   4.000000E-01   4.000000E-01   4.000000E-01   4.000000E-01   4.000000E-01   4.000000E-01   4.000000E-01   4.000000E-01   4.000000E-01   4.000000E-01   4.000000E-01   4.000000E-01   4.000000E-01   4.000000E-01   4.000000E-01   4.000000E-01   4.000000E-01   4.000000E-01   4.000000E-01   4.000000E-01   4.000000E-01   4.000000E-01   4.000000E-01   4.000000E-01   4.000000E-01   4.000000E-01   4.000000E-01   4.000000E-01   4.000000E-01   4.000000E-01   4.000000E-01   4.000000E-01   4.000000E-01   4.000000E-01   4.000000E-01   4.000000E-01   4.000000E-01   4.000000E-01   4.000000E-01   4.000000E-01   4.000000E-01   4.000000E-01   4.000000E-01   4.000000E-01   4.000000E-01   4.000000E-01   4.000000E-01   4.000000E-01   4.000000E-01   4.000000E-01   4.000000E-01   4.000000E-01   4.000000E-01   4.000000E-01   4.000000E-01   4.000000E-01   4.000000E-01   4.000000E-01   4.000000E-01   4.000000E-01   4.000000E-01   4.000000E-01   4.000000E-01   4.000000E-01   4.000000E-01   4.000000E-01   4.000000E-01   4.000000E-01   4.000000E-01   4.000000E-01   4.000000E-01   4.000000E-01   4.000000E-01   4.000000E-01   4.000000E-01   4.000000E-01   4.000000E-01   4.000000E-01   4.000000E-01   4.000000E-01   4.000000E-01   4.000000E-01   4.000000E-01   4.000000E-01   4.000000E-01   4.000000E-01   4.000000E-01   4.000000E-01   4.000000E-01   4.000000E-01   4.000000E-01   4.000000E-01   4.000000E-01   4.000000E-01   4.000000E-01   4.000000E-01   4.000000E-01   4.000000E-01   4.000000E-01   4.000000E-01   4.000000E-01   4.000000E-01   4.000000E-01   4.000000E-01   4.000000E-01   4.000000E-01   4.000000E-01   4.000000E-01   4.000000E-01   4.000000E-01   4.000000E-01   4.000000E-01   4.000000E-01   4.000000E-01   4.000000E-01   4.000000E-01   4.000000E-01   4.000000E-01   4.000000E-01   4.000000E-01   4.000000E-01   4.000000E-01   4.000000E-01   4.000000E-01   4.000000E-01   4.000000E-01   4.000000E-01   4.000000E-01   4.000000E-01   4.000000E-01   4.000000E-01   4.000000E-01   4.000000E-01   4.000000E-01   4.000000E-01   4.000000E-01   4.000000E-01   4.000000E-01   4.000000E-01   4.000000E-01   4.000000E-01   4.000000E-01   4.000000E-01   4.000000E-01   4.000000E-01   4.000000E-01   4.000000E-01   4.000000E-01   4.000000E-01   4.000000E-01   4.000000E-01   4.000000E-01   4.000000E-01   4.000000E-01   4.000000E-01   4.000000E-01   4.000000E-01   4.000000E-01   4.000000E-01   4.000000E-01   4.000000E-01   4.000000E-01   4.000000E-01   4.000000E-01   4.000000E-01   4.000000E-01   4.000000E-01   4.000000E-01   4.000000E-01   4.000000E-01   4.000000E-01   4.000000E-01   4.000000E-01   4.000000E-01   4.000000E-01   4.000000E-01   4.000000E-01   4.000000E-01   4.000000E-01   4.000000E-01   4.000000E-01   4.000000E-01   4.000000E-01   4.000000E-01   4.000000E-01   4.000000E-01   4.000000E-01   4.000000E-01   4.000000E-01   4.000000E-01   4.000000E-01   4.000000E-01   4.000000E-01   4.000000E-01   4.000000E-01   4.000000E-01   4.000000E-01   4.000000E-01   4.000000E-01   4.000000E-01   4.000000E-01   4.000000E-01   4.000000E-01   4.000000E-01   4.000000E-01   4.000000E-01   4.000000E-01   4.000000E-01   4.000000E-01   4.000000E-01   4.000000E-01   4.000000E-01   4.000000E-01   4.000000E-01   4.000000E-01   4.000000E-01   4.000000E-01   4.000000E-01   4.000000E-01   4.000000E-01   4.000000E-01   4.000000E-01   4.000000E-01   4.000000E-01   4.000000E-01   4.000000E-01   4.000000E-01   4.000000E-01   4.000000E-01   4.000000E-01   4.000000E-01   4.000000E-01   4.000000E-01   4.000000E-01   4.000000E-01   4.000000E-01   4.000000E-01   4.000000E-01   4.000000E-01   4.000000E-01   4.000000E-01   4.000000E-01   4.000000E-01   4.000000E-01   4.000000E-01   4.000000E-01   4.000000E-01   4.000000E-01   4.000000E-01   4.000000E-01   4.000000E-01   4.000000E-01   4.000000E-01   4.000000E-01   4.000000E-01   4.000000E-01   4.000000E-01   4.000000E-01   4.000000E-01   4.000000E-01   4.000000E-01   4.000000E-01   4.000000E-01   4.000000E-01   4.000000E-01   4.000000E-01   4.000000E-01   4.000000E-01   4.000000E-01   4.000000E-01   4.000000E-01   4.000000E-01   4.000000E-01   4.000000E-01   4.000000E-01   4.000000E-01   4.000000E-01   4.000000E-01   4.000000E-01   4.000000E-01   4.000000E-01   4.000000E-01   4.000000E-01   4.000000E-01   4.000000E-01   4.000000E-01   4.000000E-01   4.000000E-01   4.000000E-01   4.000000E-01   4.000000E-01   4.000000E-01   4.000000E-01   4.000000E-01   4.000000E-01   4.000000E-01   4.000000E-01   4.000000E-01   4.000000E-01   4.000000E-01   4.000000E-01   4.000000E-01   4.000000E-01   4.000000E-01   4.000000E-01   4.000000E-01   4.000000E-01   4.000000E-01   4.000000E-01   4.000000E-01   4.000000E-01   4.000000E-01   4.000000E-01   4.000000E-01   4.000000E-01   4.000000E-01   4.000000E-01   4.000000E-01   4.000000E-01   4.000000E-01   4.000000E-01   4.000000E-01   4.000000E-01   4.000000E-01   4.000000E-01   4.000000E-01   4.000000E-01   4.000000E-01   4.000000E-01   4.000000E-01   4.000000E-01   4.000000E-01   4.000000E-01   4.000000E-01   4.000000E-01   4.000000E-01   4.000000E-01   4.000000E-01   4.000000E-01   4.000000E-01   4.000000E-01   4.000000E-01   4.000000E-01   4.000000E-01   4.000000E-01   4.000000E-01   4.000000E-01   4.000000E-01   4.000000E-01   4.000000E-01   4.000000E-01   4.000000E-01   4.000000E-01   4.000000E-01   4.000000E-01   4.000000E-01   4.000000E-01   4.000000E-01   4.000000E-01   4.000000E-01   4.000000E-01   4.000000E-01   4.000000E-01   4.000000E-01   4.000000E-01   4.000000E-01   4.000000E-01   4.000000E-01   4.000000E-01   4.000000E-01   4.000000E-01   4.000000E-01   4.000000E-01   4.000000E-01   4.000000E-01   4.000000E-01   4.000000E-01   4.000000E-01   4.000000E-01   4.000000E-01   4.000000E-01   4.000000E-01   4.000000E-01   4.000000E-01   4.000000E-01   4.000000E-01   4.000000E-01   4.000000E-01   4.000000E-01   4.000000E-01   4.000000E-01   4.000000E-01   4.000000E-01   4.000000E-01   4.000000E-01   4.000000E-01   4.000000E-01   4.000000E-01   4.000000E-01   4.000000E-01   4.000000E-01   4.000000E-01   4.000000E-01   4.000000E-01   4.000000E-01   4.000000E-01   4.000000E-01   4.000000E-01   4.000000E-01   4.000000E-01   4.000000E-01   4.000000E-01   4.000000E-01   4.000000E-01   4.000000E-01   4.000000E-01   4.000000E-01   4.000000E-01   4.000000E-01   4.000000E-01   4.000000E-01   4.000000E-01   4.000000E-01   4.000000E-01   4.000000E-01   4.000000E-01   4.000000E-01   4.000000E-01   4.000000E-01   4.000000E-01   4.000000E-01   4.000000E-01   4.000000E-01   4.000000E-01   4.000000E-01   4.000000E-01   4.000000E-01   4.000000E-01   4.000000E-01   4.000000E-01   4.000000E-01   4.000000E-01   4.000000E-01   4.000000E-01   4.000000E-01   4.000000E-01   4.000000E-01   4.000000E-01   4.000000E-01   4.000000E-01   4.000000E-01   4.000000E-01   4.000000E-01   4.000000E-01   4.000000E-01   4.000000E-01   4.000000E-01   4.000000E-01   4.000000E-01   4.000000E-01   4.000000E-01   4.000000E-01   4.000000E-01   4.000000E-01   4.000000E-01   4.000000E-01   4.000000E-01   4.000000E-01   4.000000E-01   4.000000E-01   4.000000E-01   4.000000E-01   4.000000E-01   4.000000E-01   4.000000E-01   4.000000E-01   4.000000E-01   4.000000E-01   4.000000E-01   4.000000E-01   4.000000E-01   4.000000E-01   4.000000E-01   4.000000E-01   4.000000E-01   4.000000E-01   4.000000E-01   4.000000E-01   4.000000E-01   4.000000E-01   4.000000E-01   4.000000E-01   4.000000E-01   4.000000E-01   4.000000E-01   4.000000E-01   4.000000E-01   4.000000E-01   4.000000E-01   4.000000E-01   4.000000E-01   4.000000E-01   4.000000E-01   4.000000E-01   4.000000E-01   4.000000E-01   4.000000E-01   4.000000E-01   4.000000E-01   4.000000E-01   4.000000E-01   4.000000E-01   4.000000E-01   4.000000E-01   4.000000E-01   4.000000E-01   