<?xml version="1.0"?>
<!-- Time =  2.0018362602810125E-01s -->
<VTKFile type="PolyData" version="0.1" byte_order="LittleEndian">
<PolyData>
<Piece NumberOfPoints="0000002400" NumberOfVerts="0" NumberOfLines="0" NumberOfStrips="0" NumberOfPolys="0">
<Points>
<DataArray type="Float32" Name="Position" NumberOfComponents="3" format="ascii">
  2.087032E-01   1.998316E-01   2.081585E-01   6.837581E-01   1.999418E-01   2.394231E-01   1.083777E+00   2.000640E-01   2.010655E-01   1.483575E+00   1.998842E-01   1.998936E-01   1.883529E+00   1.996759E-01   2.008992E-01   2.536598E+00   2.134694E-01   2.190961E-01   2.949254E+00   2.079180E-01   2.193448E-01   3.355753E+00   1.997387E-01   2.095144E-01   3.763552E+00   1.994180E-01   2.046793E-01   4.172529E+00   2.004373E-01   2.191548E-01   4.586383E+00   2.006854E-01   2.340489E-01   4.984374E+00   2.049240E-01   2.038158E-01   5.392128E+00   2.020299E-01   2.034749E-01   5.855264E+00   1.983333E-01   2.065942E-01   6.763050E+00   2.141599E-01   2.592293E-01   6.915900E+00   7.355982E-01   4.627133E-01   6.355913E+00   9.205722E-01   7.391357E-01   7.122944E+00   1.193975E+00   3.675621E-01   6.162422E+00   2.371963E+00   8.601553E-01   7.215819E+00   4.990084E-01   3.168955E-01   7.950000E+00   3.004382E-01   5.389899E-01   8.701596E+00   2.060597E-01   2.278557E-01   9.520480E+00   2.020269E-01   2.111206E-01   9.972286E+00   1.998265E-01   2.223500E-01   1.039275E+01   1.997923E-01   2.288960E-01   1.089158E+01   1.998177E-01   2.237286E-01   1.129142E+01   1.997676E-01   2.086778E-01   1.169144E+01   1.998038E-01   2.169380E-01   1.209165E+01   1.996463E-01   2.115890E-01   1.249162E+01   1.997840E-01   2.168681E-01   1.295388E+01   1.997286E-01   2.207801E-01   1.335388E+01   1.996645E-01   2.122800E-01   1.375379E+01   1.997248E-01   2.185315E-01   1.416256E+01   1.998053E-01   2.270512E-01   1.456257E+01   1.998195E-01   2.268782E-01   1.999332E-01   5.943981E-01   2.732783E-01   5.812329E-01   5.556772E-01   3.916526E-01   9.543591E-01   5.761430E-01   2.430132E-01   1.356786E+00   5.792985E-01   2.003627E-01   1.758157E+00   5.840334E-01   2.000701E-01   2.201747E+00   4.139419E-01   3.146970E-01   2.741551E+00   5.763634E-01   2.437310E-01   3.156350E+00   5.535448E-01   2.037212E-01   3.556775E+00   5.456111E-01   1.996898E-01   3.967623E+00   5.445732E-01   2.000976E-01   4.374992E+00   5.477952E-01   2.353561E-01   4.780963E+00   5.486952E-01   2.007140E-01   5.189987E+00   5.593415E-01   2.225438E-01   5.627841E+00   5.274308E-01   2.151092E-01   6.269183E+00   2.489351E-01   2.776904E-01   6.459823E+00   6.789494E-01   4.045851E-01   5.800688E+00   9.375312E-01   3.273778E-01   6.567084E+00   8.067564E-01   1.086598E+00   8.184503E+00   1.636493E+00   3.816950E-01   6.495288E+00   1.995067E+00   1.094873E+00   8.228713E+00   2.994823E-01   2.068634E-01   9.116712E+00   1.994806E-01   3.276736E-01   9.732656E+00   4.760157E-01   4.178272E-01   1.018295E+01   5.390587E-01   1.999595E-01   1.064245E+01   5.108014E-01   2.581448E-01   1.109091E+01   5.457093E-01   2.000781E-01   1.149159E+01   5.458380E-01   1.999687E-01   1.189162E+01   5.455863E-01   1.996635E-01   1.229167E+01   5.456991E-01   1.999965E-01   1.272300E+01   5.255114E-01   1.998909E-01   1.315359E+01   5.455638E-01   1.999549E-01   1.355397E+01   5.456172E-01   1.999838E-01   1.395851E+01   5.427662E-01   2.000190E-01   1.436248E+01   5.450603E-01   2.002010E-01   1.480002E+01   5.205570E-01   2.000763E-01   2.009323E-01   9.880146E-01   2.011740E-01   5.983907E-01   9.134553E-01   2.122914E-01   9.925743E-01   9.743319E-01   2.414711E-01   1.401258E+00   9.949441E-01   2.513914E-01   1.795304E+00   1.038959E+00   2.001566E-01   2.131923E+00   7.946208E-01   2.127470E-01   2.490447E+00   9.878318E-01   1.997407E-01   2.939060E+00   9.306614E-01   2.338585E-01   3.343982E+00   9.064360E-01   2.186549E-01   3.757381E+00   8.969054E-01   2.275799E-01   4.165643E+00   8.971782E-01   1.994729E-01   4.564642E+00   9.017844E-01   2.311221E-01   4.925497E+00   8.691421E-01   4.085321E-01   5.550660E+00   6.439290E-01   5.883411E-01   6.027607E+00   6.114929E-01   4.366032E-01   6.141371E+00   7.391748E-01   1.021717E+00   5.317400E+00   9.330233E-01   2.564497E-01   6.559447E+00   1.164732E+00   3.852054E-01   6.877095E+00   3.045330E+00   2.420457E-01   7.820822E+00   5.924278E-01   2.017283E-01   7.544127E+00   8.119723E-01   4.128761E-01   8.737409E+00   5.892297E-01   4.173572E-01   9.323338E+00   5.675201E-01   2.689546E-01   9.867056E+00   7.862663E-01   2.017035E-01   1.040939E+01   8.079933E-01   3.906294E-01   1.085021E+01   8.505290E-01   2.954983E-01   1.129112E+01   8.885688E-01   2.484461E-01   1.169192E+01   8.858000E-01   2.653257E-01   1.209155E+01   8.912265E-01   2.224372E-01   1.252300E+01   8.700818E-01   2.345502E-01   1.292293E+01   8.707859E-01   2.312624E-01   1.335369E+01   8.918157E-01   2.030291E-01   1.375855E+01   8.874847E-01   2.344690E-01   1.415857E+01   8.891761E-01   1.991113E-01   1.459989E+01   8.666381E-01   2.133960E-01   2.129593E-01   1.997553E-01   6.386020E-01   6.409808E-01   1.999215E-01   6.623899E-01   1.099867E+00   2.006002E-01   6.159009E-01   1.505687E+00   1.996809E-01   5.992879E-01   1.909250E+00   1.996369E-01   6.022605E-01   2.308055E+00   2.000563E-01   6.367662E-01   2.933488E+00   1.998562E-01   6.417634E-01   3.458730E+00   1.998676E-01   6.217915E-01   3.858031E+00   2.002792E-01   5.943334E-01   4.270509E+00   2.000995E-01   6.091602E-01   4.675280E+00   2.000985E-01   6.465057E-01   5.196468E+00   1.994505E-01   5.889118E-01   5.596628E+00   2.018124E-01   5.512957E-01   6.509922E+00   2.015907E-01   6.071836E-01   7.306884E+00   6.449564E-01   8.602170E-01   7.020403E+00   2.078736E+00   1.412344E+00   6.156310E+00   5.368664E+00   4.527027E-01   7.157684E+00   1.286271E+01   9.275261E-01   7.707657E+00   1.188874E+01   1.211212E+00   7.032845E+00   8.294469E+00   1.671885E+00   7.241577E+00   1.917127E+00   1.002296E+00   8.306627E+00   3.841363E-01   7.563332E-01   9.175359E+00   1.984670E-01   7.452087E-01   9.938358E+00   1.996607E-01   6.209716E-01   1.036236E+01   1.997317E-01   6.748825E-01   1.077302E+01   1.994802E-01   6.726025E-01   1.117415E+01   1.997554E-01   6.198788E-01   1.160701E+01   1.996294E-01   6.495331E-01   1.200716E+01   1.998663E-01   6.415465E-01   1.240710E+01   1.998417E-01   6.414304E-01   1.280879E+01   1.998241E-01   6.509675E-01   1.321961E+01   1.997396E-01   6.403269E-01   1.361958E+01   1.997868E-01   6.424628E-01   1.402031E+01   1.997141E-01   6.424767E-01   1.442024E+01   1.996970E-01   6.460214E-01   1.999830E-01   5.978262E-01   6.734074E-01   5.840722E-01   5.737076E-01   7.929122E-01   9.856039E-01   5.625014E-01   7.473204E-01   1.363932E+00   5.735275E-01   6.119533E-01   1.763758E+00   5.719031E-01   6.007330E-01   2.215188E+00   5.895535E-01   6.753724E-01   2.620682E+00   4.452294E-01   6.938471E-01   3.198156E+00   5.034047E-01   5.987648E-01   3.661706E+00   5.495408E-01   5.852116E-01   4.061855E+00   5.477840E-01   5.908632E-01   4.454633E+00   4.734595E-01   8.380374E-01   4.932195E+00   4.986142E-01   5.680912E-01   5.413960E+00   3.858681E-01   8.682281E-01   5.988232E+00   2.003599E-01   6.312390E-01   6.818946E+00   5.335727E-01   8.366668E-01   6.913740E+00   1.251816E+00   1.058736E+00   4.040801E+00   3.076313E+00   4.230183E-01   4.610753E+00   5.760293E+00   3.014328E-01   8.215978E+00   8.961987E+00   9.094207E-01   7.793066E+00   4.620021E+00   5.323222E-01   7.753400E+00   8.360689E-01   8.723973E-01   8.764442E+00   2.061551E-01   8.763340E-01   9.568226E+00   3.104387E-01   7.536092E-01   1.015615E+01   5.342394E-01   6.010243E-01   1.056775E+01   5.419507E-01   6.500171E-01   1.096468E+01   5.378587E-01   5.796089E-01   1.139389E+01   5.322785E-01   5.874177E-01   1.180530E+01   5.415946E-01   5.897469E-01   1.220680E+01   5.426528E-01   5.909235E-01   1.260928E+01   5.398382E-01   5.828965E-01   1.301323E+01   5.403769E-01   6.048231E-01   1.341989E+01   5.400354E-01   5.768070E-01   1.382003E+01   5.393291E-01   5.754167E-01   1.422096E+01   5.390197E-01   5.747481E-01   1.480003E+01   3.074295E-01   5.824403E-01   2.021304E-01   9.933062E-01   6.142979E-01   5.986301E-01   9.429067E-01   6.393969E-01   9.997088E-01   9.607593E-01   6.733949E-01   1.401360E+00   9.672501E-01   6.742959E-01   1.803973E+00   9.646028E-01   6.649296E-01   2.197264E+00   9.799154E-01   5.789276E-01   2.518809E+00   8.343822E-01   7.711920E-01   2.942736E+00   8.042410E-01   6.659178E-01   3.425396E+00   8.671921E-01   6.456226E-01   3.824557E+00   8.789064E-01   7.423667E-01   4.337251E+00   8.250859E-01   6.759820E-01   4.722160E+00   7.697549E-01   7.771775E-01   5.187381E+00   7.814705E-01   7.106289E-01   5.802546E+00   5.619596E-01   9.001713E-01   6.369377E+00   4.288843E-01   9.101457E-01   4.080989E+00   1.108371E+00   5.284331E-01   2.507805E+00   1.232930E+00   6.373322E-01   5.683313E+00   7.580568E+00   2.226607E-01   8.559484E+00   8.250911E+00   2.576752E-01   9.377001E+00   6.716139E-01   7.698963E-01   7.315949E+00   1.233658E+00   8.779601E-01   8.005458E+00   1.348243E+00   7.049282E-01   8.955265E+00   5.400882E-01   7.704422E-01   9.835599E+00   7.928183E-01   7.447996E-01   1.033613E+01   8.264889E-01   8.093092E-01   1.078664E+01   8.744273E-01   7.013677E-01   1.118265E+01   8.676433E-01   6.420894E-01   1.159120E+01   8.744187E-01   6.516305E-01   1.200498E+01   8.873582E-01   6.132949E-01   1.240971E+01   8.861620E-01   6.178625E-01   1.280959E+01   8.845002E-01   6.158982E-01   1.321626E+01   8.842645E-01   5.823995E-01   1.362219E+01   8.848112E-01   6.134431E-01   1.402136E+01   8.858367E-01   5.744504E-01   1.460048E+01   6.509863E-01   6.333722E-01   2.102279E-01   1.998838E-01   1.046963E+00   6.798332E-01   1.998003E-01   1.077589E+00   1.079524E+00   2.023119E-01   1.049461E+00   1.645986E+00   1.996107E-01   9.921188E-01   2.233452E+00   2.009614E-01  
[...]
<PointData Scalars="Diameter" Vectors="Velocity">
<DataArray type="Float32" Name="Diameter" format="ascii">
  4.000000E-01   4.000000E-01   4.000000E-01   4.000000E-01   4.000000E-01   4.000000E-01   4.000000E-01   4.000000E-01   4.000000E-01   4.000000E-01   4.000000E-01   4.000000E-01   4.000000E-01   4.000000E-01   4.000000E-01   4.000000E-01   4.000000E-01   4.000000E-01   4.000000E-01   4.000000E-01   4.000000E-01   4.000000E-01   4.000000E-01   4.000000E-01   4.000000E-01   4.000000E-01   4.000000E-01   4.000000E-01   4.000000E-01   4.000000E-01   4.000000E-01   4.000000E-01   4.000000E-01   4.000000E-01   4.000000E-01   4.000000E-01   4.000000E-01   4.000000E-01   4.000000E-01   4.000000E-01   4.000000E-01   4.000000E-01   4.000000E-01   4.000000E-01   4.000000E-01   4.000000E-01   4.000000E-01   4.000000E-01   4.000000E-01   4.000000E-01   4.000000E-01   4.000000E-01   4.000000E-01   4.000000E-01   4.000000E-01   4.000000E-01   4.000000E-01   4.000000E-01   4.000000E-01   4.000000E-01   4.000000E-01   4.000000E-01   4.000000E-01   4.000000E-01   4.000000E-01   4.000000E-01   4.000000E-01   4.000000E-01   4.000000E-01   4.000000E-01   4.000000E-01   4.000000E-01   4.000000E-01   4.000000E-01   4.000000E-01   4.000000E-01   4.000000E-01   4.000000E-01   4.000000E-01   4.000000E-01   4.000000E-01   4.000000E-01   4.000000E-01   4.000000E-01   4.000000E-01   4.000000E-01   4.000000E-01   4.000000E-01   4.000000E-01   4.000000E-01   4.000000E-01   4.000000E-01   4.000000E-01   4.000000E-01   4.000000E-01   4.000000E-01   4.000000E-01   4.000000E-01   4.000000E-01   4.000000E-01   4.000000E-01   4.000000E-01   4.000000E-01   4.000000E-01   4.000000E-01   4.000000E-01   4.000000E-01   4.000000E-01   4.000000E-01   4.000000E-01   4.000000E-01   4.000000E-01   4.000000E-01   4.000000E-01   4.000000E-01   4.000000E-01   4.000000E-01   4.000000E-01   4.000000E-01   4.000000E-01   4.000000E-01   4.000000E-01   4.000000E-01   4.000000E-01   4.000000E-01   4.000000E-01   4.000000E-01   4.000000E-01   4.000000E-01   4.000000E-01   4.000000E-01   4.000000E-01   4.000000E-01   4.000000E-01   4.000000E-01   4.000000E-01   4.000000E-01   4.000000E-01   4.000000E-01   4.000000E-01   4.000000E-01   4.000000E-01   4.000000E-01   4.000000E-01   4.000000E-01   4.000000E-01   4.000000E-01   4.000000E-01   4.000000E-01   4.000000E-01   4.000000E-01   4.000000E-01   4.000000E-01   4.000000E-01   4.000000E-01   4.000000E-01   4.000000E-01   4.000000E-01   4.000000E-01   4.000000E-01   4.000000E-01   4.000000E-01   4.000000E-01   4.000000E-01   4.000000E-01   4.000000E-01   4.000000E-01   4.000000E-01   4.000000E-01   4.000000E-01   4.000000E-01   4.000000E-01   4.000000E-01   4.000000E-01   4.000000E-01   4.000000E-01   4.000000E-01   4.000000E-01   4.000000E-01   4.000000E-01   4.000000E-01   4.000000E-01   4.000000E-01   4.000000E-01   4.000000E-01   4.000000E-01   4.000000E-01   4.000000E-01   4.000000E-01   4.000000E-01   4.000000E-01   4.000000E-01   4.000000E-01   4.000000E-01   4.000000E-01   4.000000E-01   4.000000E-01   4.000000E-01   4.000000E-01   4.000000E-01   4.000000E-01   4.000000E-01   4.000000E-01   4.000000E-01   4.000000E-01   4.000000E-01   4.000000E-01   4.000000E-01   4.000000E-01   4.000000E-01   4.000000E-01   4.000000E-01   4.000000E-01   4.000000E-01   4.000000E-01   4.000000E-01   4.000000E-01   4.000000E-01   4.000000E-01   4.000000E-01   4.000000E-01   4.000000E-01   4.000000E-01   4.000000E-01   4.000000E-01   4.000000E-01   4.000000E-01   4.000000E-01   4.000000E-01   4.000000E-01   4.000000E-01   4.000000E-01   4.000000E-01   4.000000E-01   4.000000E-01   4.000000E-01   4.000000E-01   4.000000E-01   4.000000E-01   4.000000E-01   4.000000E-01   4.000000E-01   4.000000E-01   4.000000E-01   4.000000E-01   4.000000E-01   4.000000E-01   4.000000E-01   4.000000E-01   4.000000E-01   4.000000E-01   4.000000E-01   4.000000E-01   4.000000E-01   4.000000E-01   4.000000E-01   4.000000E-01   4.000000E-01   4.000000E-01   4.000000E-01   4.000000E-01   4.000000E-01   4.000000E-01   4.000000E-01   4.000000E-01   4.000000E-01   4.000000E-01   4.000000E-01   4.000000E-01   4.000000E-01   4.000000E-01   4.000000E-01   4.000000E-01   4.000000E-01   4.000000E-01   4.000000E-01   4.000000E-01   4.000000E-01   4.000000E-01   4.000000E-01   4.000000E-01   4.000000E-01   4.000000E-01   4.000000E-01   4.000000E-01   4.000000E-01   4.000000E-01   4.000000E-01   4.000000E-01   4.000000E-01   4.000000E-01   4.000000E-01   4.000000E-01   4.000000E-01   4.000000E-01   4.000000E-01   4.000000E-01   4.000000E-01   4.000000E-01   4.000000E-01   4.000000E-01   4.000000E-01   4.000000E-01   4.000000E-01   4.000000E-01   4.000000E-01   4.000000E-01   4.000000E-01   4.000000E-01   4.000000E-01   4.000000E-01   4.000000E-01   4.000000E-01   4.000000E-01   4.000000E-01   4.000000E-01   4.000000E-01   4.000000E-01   4.000000E-01   4.000000E-01   4.000000E-01   4.000000E-01   4.000000E-01   4.000000E-01   4.000000E-01   4.000000E-01   4.000000E-01   4.000000E-01   4.000000E-01   4.000000E-01   4.000000E-01   4.000000E-01   4.000000E-01   4.000000E-01   4.000000E-01   4.000000E-01   4.000000E-01   4.000000E-01   4.000000E-01   4.000000E-01   4.000000E-01   4.000000E-01   4.000000E-01   4.000000E-01   4.000000E-01   4.000000E-01   4.000000E-01   4.000000E-01   4.000000E-01   4.000000E-01   4.000000E-01   4.000000E-01   4.000000E-01   4.000000E-01   4.000000E-01   4.000000E-01   4.000000E-01   4.000000E-01   4.000000E-01   4.000000E-01   4.000000E-01   4.000000E-01   4.000000E-01   4.000000E-01   4.000000E-01   4.000000E-01   4.000000E-01   4.000000E-01   4.000000E-01   4.000000E-01   4.000000E-01   4.000000E-01   4.000000E-01   4.000000E-01   4.000000E-01   4.000000E-01   4.000000E-01   4.000000E-01   4.000000E-01   4.000000E-01   4.000000E-01   4.000000E-01   4.000000E-01   4.000000E-01   4.000000E-01   4.000000E-01   4.000000E-01   4.000000E-01   4.000000E-01   4.000000E-01   4.000000E-01   4.000000E-01   4.000000E-01   4.000000E-01   4.000000E-01   4.000000E-01   4.000000E-01   4.000000E-01   4.000000E-01   4.000000E-01   4.000000E-01   4.000000E-01   4.000000E-01   4.000000E-01   4.000000E-01   4.000000E-01   4.000000E-01   4.000000E-01   4.000000E-01   4.000000E-01   4.000000E-01   4.000000E-01   4.000000E-01   4.000000E-01   4.000000E-01   4.000000E-01   4.000000E-01   4.000000E-01   4.000000E-01   4.000000E-01   4.000000E-01   4.000000E-01   4.000000E-01   4.000000E-01   4.000000E-01   4.000000E-01   4.000000E-01   4.000000E-01   4.000000E-01   4.000000E-01   4.000000E-01   4.000000E-01   4.000000E-01   4.000000E-01   4.000000E-01   4.000000E-01   4.000000E-01   4.000000E-01   4.000000E-01   4.000000E-01   4.000000E-01   4.000000E-01   4.000000E-01   4.000000E-01   4.000000E-01   4.000000E-01   4.000000E-01   4.000000E-01   4.000000E-01   4.000000E-01   4.000000E-01   4.000000E-01   4.000000E-01   4.000000E-01   4.000000E-01   4.000000E-01   4.000000E-01   4.000000E-01   4.000000E-01   4.000000E-01   4.000000E-01   4.000000E-01   4.000000E-01   4.000000E-01   4.000000E-01   4.000000E-01   4.000000E-01   4.000000E-01   4.000000E-01   4.000000E-01   4.000000E-01   4.000000E-01   4.000000E-01   4.000000E-01   4.000000E-01   4.000000E-01   4.000000E-01   4.000000E-01   4.000000E-01   4.000000E-01   4.000000E-01   4.000000E-01   4.000000E-01   4.000000E-01   4.000000E-01   4.000000E-01   4.000000E-01   4.000000E-01   4.000000E-01   4.000000E-01   4.000000E-01   4.000000E-01   4.000000E-01   4.000000E-01   4.000000E-01   4.000000E-01   4.000000E-01   4.000000E-01   4.000000E-01   4.000000E-01   4.000000E-01   4.000000E-01   4.000000E-01   4.000000E-01   4.000000E-01   4.000000E-01   4.000000E-01   4.000000E-01   4.000000E-01   4.000000E-01   4.000000E-01   4.000000E-01   4.000000E-01   4.000000E-01   4.000000E-01   4.000000E-01   4.000000E-01   4.000000E-01   4.000000E-01   4.000000E-01   4.000000E-01   4.000000E-01   4.000000E-01   4.000000E-01   4.000000E-01   4.000000E-01   4.000000E-01   4.000000E-01   4.000000E-01   4.000000E-01   4.000000E-01   4.000000E-01   4.000000E-01   4.000000E-01   4.000000E-01   4.000000E-01   4.000000E-01   4.000000E-01   4.000000E-01   4.000000E-01   4.000000E-01   4.000000E-01   4.000000E-01   4.000000E-01   4.000000E-01   4.000000E-01   4.000000E-01   4.000000E-01   4.000000E-01   4.000000E-01   4.000000E-01   4.000000E-01   4.000000E-01   4.000000E-01   4.000000E-01   4.000000E-01   4.000000E-01   4.000000E-01   4.000000E-01   4.000000E-01   4.000000E-01   4.000000E-01   4.000000E-01   4.000000E-01   4.000000E-01   4.000000E-01   4.000000E-01   4.000000E-01   4.000000E-01   4.000000E-01   4.000000E-01   4.000000E-01   4.000000E-01   4.000000E-01   4.000000E-01   4.000000E-01   4.000000E-01   4.000000E-01   4.000000E-01   4.000000E-01   4.000000E-01   4.000000E-01   4.000000E-01   4.000000E-01   4.000000E-01   4.000000E-01   4.000000E-01   4.000000E-01   4.000000E-01   4.000000E-01   4.000000E-01   4.000000E-01   4.000000E-01   4.000000E-01   4.000000E-01   4.000000E-01   4.000000E-01   4.000000E-01   4.000000E-01   4.000000E-01   4.000000E-01   4.000000E-01   4.000000E-01   4.000000E-01   4.000000E-01   4.000000E-01   4.000000E-01   4.000000E-01   4.000000E-01   4.000000E-01   4.000000E-01   4.000000E-01   4.000000E-01   4.000000E-01   4.000000E-01   4.000000E-01   4.000000E-01   4.000000E-01   4.000000E-01   4.000000E-01   4.000000E-01   4.000000E-01   4.000000E-01   4.000000E-01   4.000000E-01   4.000000E-01   4.000000E-01   4.000000E-01   4.000000E-01   4.000000E-01   4.000000E-01   4.000000E-01   4.000000E-01   4.000000E-01   4.000000E-01   4.000000E-01   4.000000E-01   4.000000E-01   4.000000E-01   4.000000E-01   4.000000E-01   4.000000E-01   4.000000E-01   4.000000E-01   4.000000E-01   4.000000E-01   4.000000E-01   4.000000E-01   4.000000E-01   4.000000E-01   4.000000E-01   4.000000E-01   4.000000E-01   4.000000E-01   4.000000E-01   4.000000E-01   4.000000E-01   4.000000E-01   4.000000E-01   4.000000E-01   4.000000E-01   4.000000E-01   4.000000E-01   4.000000E-01   4.000000E-01   4.000000E-01   4.000000E-01   4.000000E-01   4.000000E-01   4.000000E-01   4.000000E-01   4.000000E-01   4.000000E-01   4.000000E-01   4.000000E-01   4.000000E-01   4.000000E-01   4.000000E-01   4.000000E-01   4.000000E-01   4.000000E-01   4.000000E-01   4.000000E-01   4.000000E-01   4.000000E-01   4.000000E-01   4.000000E-01   4.000000E-01   4.000000E-01   4.000000E-01   4.000000E-01   4.000000E-01   4.000000E-01   4.000000E-01   4.000000E-01   4.000000E-01   4.000000E-01   4.000000E-01   4.000000E-01   4.000000E-01   4.000000E-01   4.000000E-01   4.000000E-01   4.000000E-01   4.000000E-01   4.000000E-01   4.000000E-01   4.000000E-01   4.000000E-01   4.000000E-01   4.000000E-01   4.000000E-01   4.000000E-01   4.000000E-01   4.000000E-01   4.000000E-01   4.000000E-01   4.000000E-01   4.000000E-01   4.000000E-01   4.000000E-01   4.000000E-01   4.000000E-01   4.000000E-01   4.000000E-01   4.000000E-01   4.000000E-01   4.000000E-01   4.000000E-01   4.000000E-01   4.000000E-01   4.000000E-01   4.000000E-01   4.000000E-01   4.000000E-01   4.000000E-01   4.000000E-01   4.000000E-01   4.000000E-01   4.000000E-01   4.000000E-01   4.000000E-01   4.000000E-01   4.000000E-01   4.000000E-01   4.000000E-01   4.000000E-01   4.000000E-01   4.000000E-01   4.000000E-01   4.000000E-01   4.000000E-01   4.000000E-01   4.000000E-01   4.000000E-01   4.000000E-01   4.000000E-01   4.000000E-01   4.000000E-01   4.000000E-01   4.000000E-01   4.000000E-01   4.000000E-01   4.000000E-01   4.000000E-01   4.000000E-01   4.000000E-01   4.000000E-01   4.000000E-01   4.000000E-01   4.000000E-01   4.000000E-01   4.000000E-01   4.000000E-01   4.000000E-01   4.000000E-01   4.000000E-01   4.000000E-01   4.000000E-01   4.000000E-01   4.000000E-01   4.000000E-01   4.000000E-01   4.000000E-01   4.000000E-01   4.000000E-01   4.000000E-01   4.000000E-01   4.000000E-01   4.000000E-01   4.000000E-01   4.000000E-01   4.000000E-01   4.000000E-01   4.000000E-01   4.000000E-01   4.000000E-01   4.000000E-01   4.000000E-01   4.000000E-01   4.000000E-01   4.000000E-01   4.000000E-01   4.000000E-01   4.000000E-01   4.000000E-01   4.000000E-01   4.000000E-01   4.000000E-01   4.000000E-01   4.000000E-01   4.000000E-01   4.000000E-01   4.000000E-01   4.000000E-01   4.000000E-01   4.000000E-01   4.000000E-01   4.000000E-01   4.000000E-01   4.000000E-01   4.000000E-01   4.000000E-01   4.000000E-01   4.000000E-01   4.000000E-01   4.000000E-01   4.000000E-01   4.000000E-01   4.000000E-01   4.000000E-01   4.000000E-01   4.000000E-01   4.000000E-01   4.000000E-01   4.000000E-01   4.000000E-01   4.000000E-01   4.000000E-01   4.000000E-01   4.000000E-01   4.000000E-01   4.000000E-01   4.000000E-01   4.000000E-01   4.000000E-01   4.000000E-01   4.000000E-01   4.000000E-01   4.000000E-01   4.000000E-01   4.000000E-01   4.000000E-01   4.000000E-01   4.000000E-01   4.000000E-01   4.000000E-01   4.000000E-01   4.000000E-01   4.000000E-01   4.000000E-01   4.000000E-01   4.000000E-01   4.000000E-01   4.000000E-01   4.000000E-01   4.000000E-01   4.000000E-01   4.000000E-01   4.000000E-01   4.000000E-01   4.000000E-01   4.000000E-01   4.000000E-01   4.000000E-01   4.000000E-01   4.000000E-01   4.000000E-01   4.000000E-01   4.000000E-01   4.000000E-01   4.000000E-01   4.000000E-01   4.000000E-01   4.000000E-01   4.000000E-01   4.000000E-01   4.000000E-01   4.000000E-01   4.000000E-01   4.000000E-01   4.000000E-01   4.000000E-01   4.000000E-01   4.000000E-01   4.000000E-01   4.000000E-01   4.000000E-01   4.000000E-01   4.000000E-01   4.000000E-01   4.000000E-01   4.000000E-01   4.000000E-01   4.000000E-01   4.000000E-01   4.000000E-01   4.000000E-01   4.000000E-01   4.000000E-01   4.000000E-01   4.000000E-01   4.000000E-01   4.000000E-01   4.000000E-01   4.000000E-01   4.000000E-01   4.000000E-01   4.000000E-01   4.000000E-01   4.000000E-01   4.000000E-01   4.000000E-01   4.000000E-01   4.000000E-01   4.000000E-01   4.000000E-01   4.000000E-01   4.000000E-01   4.000000E-01   4.000000E-01   4.000000E-01   4.000000E-01   4.000000E-01   4.000000E-01   4.000000E-01   4.000000E-01   4.000000E-01   4.000000E-01   4.000000E-01   4.000000E-01   4.000000E-01   4.000000E-01   4.000000E-01   4.000000E-01   4.000000E-01   4.000000E-01   4.000000E-01   4.000000E-01   4.000000E-01   4.000000E-01   4.000000E-01   4.000000E-01   4.000000E-01   4.000000E-01   4.000000E-01   4.000000E-01   4.000000E-01   4.000000E-01   4.000000E-01   4.000000E-01   4.000000E-01   4.000000E-01   4.000000E-01   4.000000E-01   4.000000E-01   4.000000E-01   4.000000E-01   4.000000E-01   4.000000E-01   4.000000E-01   4.000000E-01   4.000000E-01   4.000000E-01   4.000000E-01   4.000000E-01   4.000000E-01   4.000000E-01   4.000000E-01   4.000000E-01   4.000000E-01   4.000000E-01   4.000000E-01   4.000000E-01   4.000000E-01   4.000000E-01   4.000000E-01   4.000000E-01   4.000000E-01   4.000000E-01   4.000000E-01   4.000000E-01   4.000000E-01   4.000000E-01   4.000000E-01   4.000000E-01   4.000000E-01   4.000000E-01   4.000000E-01   4.000000E-01   4.000000E-01   4.000000E-01   4.000000E-01   4.000000E-01   4.000000E-01   4.000000E-01   4.000000E-01   4.000000E-01   4.000000E-01   4.000000E-01   4.000000E-01   4.000000E-01   4.000000E-01   4.000000E-01   4.000000E-01   4.000000E-01   4.000000E-01   4.000000E-01   4.000000E-01   4.000000E-01   4.000000E-01   4.000000E-01   4.000000E-01   4.000000E-01   4.000000E-01   4.000000E-01   4.000000E-01   4.000000E-01   4.000000E-01   4.000000E-01   4.000000E-01   4.000000E-01   4.000000E-01   4.000000E-01   4.000000E-01   4.000000E-01   4.000000E-01   4.000000E-01   4.000000E-01   4.000000E-01   4.000000E-01   4.000000E-01   4.000000E-01   4.000000E-01   4.000000E-01   4.000000E-01   4.000000E-01   4.000000E-01   4.000000E-01   4.000000E-01   4.000000E-01   4.000000E-01   4.000000E-01   4.000000E-01   4.000000E-01   4.000000E-01   4.000000E-01   4.000000E-01   4.000000E-01   4.000000E-01   4.000000E-01   4.000000E-01   4.000000E-01   4.000000E-01   4.000000E-01   4.000000E-01   4.000000E-01   4.000000E-01   4.000000E-01   4.000000E-01   4.000000E-01   4.000000E-01   4.000000E-01   4.000000E-01   4.000000E-01   4.000000E-01   4.000000E-01   4.000000E-01   4.000000E-01   4.000000E-01   4.000000E-01   4.000000E-01   4.000000E-01   4.000000E-01   4.000000E-01   4.000000E-01   4.000000E-01   4.000000E-01   4.000000E-01   4.000000E-01   4.000000E-01   4.000000E-01   4.000000E-01   4.000000E-01   4.000000E-01   4.000000E-01   4.000000E-01   4.000000E-01   4.000000E-01   4.000000E-01   4.000000E-01   4.000000E-01   4.000000E-01   4.000000E-01   4.000000E-01   4.000000E-01   4.000000E-01   4.000000E-01   4.000000E-01   4.000000E-01   4.000000E-01   4.000000E-01   4.000000E-01   4.000000E-01   4.000000E-01   4.000000E-01   4.000000E-01   4.000000E-01   4.000000E-01   4.000000E-01   4.000000E-01   4.000000E-01   4.000000E-01   4.000000E-01   4.000000E-01   4.000000E-01   4.000000E-01   4.000000E-01   4.000000E-01   4.000000E-01   4.000000E-01   4.000000E-01   4.000000E-01   4.000000E-01   4.000000E-01   4.000000E-01   4.000000E-01   4.000000E-01   4.000000E-01   4.000000E-01   4.000000E-01   4.000000E-01   4.000000E-01   4.000000E-01   4.000000E-01   4.000000E-01   4.000000E-01   4.000000E-01   4.000000E-01   4.000000E-01   4.000000E-01   4.000000E-01   4.000000E-01   4.000000E-01   4.000000E-01   4.000000E-01   4.000000E-01   4.000000E-01   4.000000E-01   4.000000E-01   4.000000E-01   4.000000E-01   4.000000E-01   4.000000E-01   4.000000E-01   4.000000E-01   4.000000E-01   4.000000E-01   4.000000E-01   4.000000E-01   4.000000E-01   4.000000E-01   4.000000E-01   4.000000E-01   4.000000E-01   4.000000E-01   4.000000E-01   4.000000E-01   4.000000E-01   4.000000E-01   4.000000E-01   4.000000E-01   4.000000E-01   4.000000E-01   4.000000E-01   4.000000E-01   4.000000E-01   4.000000E-01   4.000000E-01   4.000000E-01   4.000000E-01   4.000000E-01   4.000000E-01   4.000000E-01   4.000000E-01   4.000000E-01   4.000000E-01   4.000000E-01   4.000000E-01   4.000000E-01   4.000000E-01   4.000000E-01   4.000000E-01   4.000000E-01   4.000000E-01   4.000000E-01   4.000000E-01   4.000000E-01   4.000000E-01   4.000000E-01   4.000000E-01   4.000000E-01   4.000000E-01   4.000000E-01   4.000000E-01   4.000000E-01   4.000000E-01   4.000000E-01   4.000000E-01   4.000000E-01   4.000000E-01   4.000000E-01   4.000000E-01   4.000000E-01   4.000000E-01   4.000000E-01   4.000000E-01   4.000000E-01   4.000000E-01   4.000000E-01   4.000000E-01   4.000000E-01   4.000000E-01   4.000000E-01   4.000000E-01   4.000000E-01   4.000000E-01   4.000000E-01   4.000000E-01   4.000000E-01   4.000000E-01   4.000000E-01   4.000000E-01   4.000000E-01   4.000000E-01   4.000000E-01   4.000000E-01   4.000000E-01   4.000000E-01   4.000000E-01   4.000000E-01   4.000000E-01   4.000000E-01   4.000000E-01   4.000000E-01   4.000000E-01   4.000000E-01   4.000000E-01   4.000000E-01   4.000000E-01   4.000000E-01   4.000000E-01   4.000000E-01   4.000000E-01   4.000000E-01   4.000000E-01   4.000000E-01   4.000000E-01   4.000000E-01   4.000000E-01   4.000000E-01   4.000000E-01   4.000000E-01   4.000000E-01   4.000000E-01   4.000000E-01   4.000000E-01   4.000000E-01   4.000000E-01   4.000000E-01   4.000000E-01   4.000000E-01   4.000000E-01   4.000000E-01   4.000000E-01   4.000000E-01   4.000000E-01   4.000000E-01   4.000000E-01   4.000000E-01   4.000000E-01   4.000000E-01   4.000000E-01   4.000000E-01   4.000000E-01   4.000000E-01   4.000000E-01   4.000000E-01   4.000000E-01   4.000000E-01   4.000000E-01   4.000000E-01   4.000000E-01   4.000000E-01   4.000000E-01   4.000000E-01   4.000000E-01   4.000000E-01   4.000000E-01   4.000000E-01   4.000000E-01   4.000000E-01   4.000000E-01   4.000000E-01   4.000000E-01   4.000000E-01   4.000000E-01   4.000000E-01   4.000000E-01   4.000000E-01   4.000000E-01   4.000000E-01   4.000000E-01   4.000000E-01   4.000000E-01   4.000000E-01   