<?xml version="1.0"?>
<!-- Time =  3.8000976260278834E+00s -->
<VTKFile type="PolyData" version="0.1" byte_order="LittleEndian">
<PolyData>
<Piece NumberOfPoints="0000002400" NumberOfVerts="0" NumberOfLines="0" NumberOfStrips="0" NumberOfPolys="0">
<Points>
<DataArray type="Float32" Name="Position" NumberOfComponents="3" format="ascii">
  8.698805E+00   5.515793E+00   3.175346E+00   1.381191E+01   1.453227E+01   1.941816E+00   1.402985E+01   4.619358E+00   3.310078E+00   4.943830E+00   1.616308E+01   4.742189E+00   6.527901E+00   2.253029E-01   3.193720E+00   1.240234E+01   9.874197E+00   1.123199E+00   9.833080E+00   6.746644E-01   2.792665E+00   1.248388E+01   1.737125E+00   4.610864E+00   7.735750E+00   1.314892E+01   4.925913E+00   1.263421E+01   4.065813E-01   3.525987E+00   6.718443E+00   2.062743E-01   1.978755E+00   1.305637E+01   5.631049E-01   9.343181E-01   8.452282E+00   6.363720E+00   3.512310E+00   5.503445E+00   2.061272E-01   2.761897E+00   5.568208E+00   5.425945E-01   8.512028E-01   1.070325E+01   6.753485E+00   4.920985E+00   1.240511E+00   2.005057E-01   3.383880E+00   7.245041E+00   1.515863E+00   2.961760E-01   6.099729E+00   5.551229E+00   3.573801E+00   1.031393E+01   1.375977E+00   2.096851E+00   3.727286E+00   7.124228E+00   1.466240E+00   2.839240E+00   1.121556E+01   2.321083E+00   8.509272E+00   2.074654E-01   2.797888E+00   6.460242E+00   5.267892E-01   4.156595E+00   6.890532E+00   5.182757E-01   1.437463E+00   6.638782E+00   4.226801E+00   4.862793E+00   1.211504E+00   5.614767E-01   3.563908E+00   5.580695E+00   1.995657E-01   4.837596E+00   2.233136E+00   1.016050E+00   3.225328E+00   2.301628E+00   5.050066E+00   2.544324E+00   6.392668E+00   5.222665E+00   4.799753E+00   6.215717E+00   7.093143E-01   1.875136E+00   6.837618E+00   2.651896E+00   3.262909E+00   8.714950E+00   3.062612E-01   1.958214E-01   2.870746E+00   5.525255E-01   3.565618E+00   5.630645E-01   8.060076E-01   3.114373E+00   1.779704E+00   2.103169E-01   1.385544E+00   3.954845E+00   2.832221E+00   1.341884E+00   8.261515E-01   8.346369E-01   4.846395E-01   4.304335E+00   5.053587E-01   1.060103E+00   6.675269E+00   1.574444E+01   8.197960E-01   9.594728E+00   6.937072E-01   2.078758E+00   1.021194E+01   8.712291E+00   4.971205E+00   1.110227E+01   2.141329E+00   6.837714E-01   4.802930E+00   2.091252E-01   3.261827E+00   1.233688E+01   7.613413E-01   3.472819E+00   4.742326E+00   7.297405E+00   3.021422E+00   6.139622E+00   1.081159E+01   2.350150E+00   8.420033E+00   4.477710E+00   3.077984E+00   6.042168E+00   1.990821E-01   4.617647E+00   7.932811E+00   2.577191E+01   3.608892E+00   7.539491E+00   1.055141E+01   2.405578E+00   2.707427E+00   1.128511E+01   3.356462E+00   1.214673E+01   1.286357E+01   1.682875E+00   8.100523E+00   4.765934E-01   2.123491E+00   1.273286E+01   1.658962E+01   3.373201E+00   5.162463E+00   8.566225E-01   1.957763E+00   3.860479E+00   1.224193E+01   1.562020E+00   3.906710E-01   4.529023E-01   2.400709E+00   1.014860E+01   4.116026E-01   4.942919E+00   2.086808E+00   1.226529E+01   2.354044E+00   7.410605E+00   5.623116E-01   2.356915E+00   1.082914E+01   4.539479E+00   4.095290E+00   1.319512E+01   3.043173E+00   2.517327E+00   1.037374E+01   9.659291E-01   2.424527E+00   3.144591E+00   2.986000E+00   9.212915E-01   1.233264E+00   2.598189E-01   4.711918E+00   1.195728E+01   3.158570E-01   3.698437E+00   8.599894E+00   1.657592E+00   3.288730E+00   7.845736E+00   1.149240E+00   4.475932E-01   1.073609E+01   1.091836E+00   3.608182E+00   5.161831E+00   2.152616E-01   5.405467E-01   6.335808E+00   5.611168E-01   3.301091E+00   9.410097E+00   2.268523E-01   3.361176E+00   7.073118E+00   1.415609E+00   4.138701E+00   8.830140E+00   1.756704E+01   2.412109E+00   1.475333E+01   1.752599E+00   1.106282E+00   6.745558E+00   2.160959E+00   7.784093E-01   1.148237E+01   8.241485E-01   4.396791E+00   3.891500E+00   2.153831E-01   7.657603E-01   6.390495E+00   1.076246E+00   3.670060E+00   1.094207E+01   6.057125E-01   2.960823E+00   7.179636E+00   2.959487E-01   8.315773E-01   5.237299E+00   6.490647E+00   4.443971E+00   5.556345E+00   8.631948E-01   2.428852E+00   6.792322E+00   6.614124E+00   3.503592E+00   1.002742E+01   3.465810E-01   3.615623E+00   7.100067E+00   5.238199E+00   3.612902E+00   8.740529E+00   1.940694E+01   2.786464E+00   2.998749E+00   1.048873E+01   1.333440E+00   1.970587E-01   2.513947E-01   2.153369E-01   6.117571E+00   7.757865E-01   2.987610E+00   3.077249E+00   2.820652E+00   3.848218E+00   6.399533E+00   8.878123E-01   4.393580E+00   3.439002E+00   9.828919E-01   3.041343E+00   1.107247E+01   2.263450E-01   4.907251E+00   4.898111E+00   2.043473E-01   2.106592E+00   4.285307E+00   5.522789E-01   1.789342E+00   4.820561E+00   5.468628E-01   1.099865E+00   6.447541E+00   1.626035E+00   3.671095E+00   7.531031E-01   1.914473E+00   9.146205E-01   1.951769E+00   5.140990E-01   3.592052E+00   1.147734E+00   1.072459E+00   1.037473E+00   9.360713E+00   1.064223E+00   2.039779E+00   1.298776E+01   1.097554E+01   2.600236E-01   6.706059E+00   8.552943E-01   3.907397E+00   1.010578E+01   1.236061E+01   1.265166E+00   9.217492E+00   9.630855E+00   3.113719E+00   6.314469E+00   2.014453E-01   8.699235E-01   1.230658E+01   8.019323E+00   4.095019E-01   3.761131E+00   7.525751E-01   3.549564E+00   6.629590E+00   1.065762E+00   2.070775E+00   1.178159E+01   5.320517E-01   4.470779E+00   1.468513E+01   7.692770E-01   4.627527E+00   4.233757E+00   1.158733E+00   2.346123E+00   7.991889E+00   4.828856E+00   4.429556E+00   6.067077E+00   2.011526E-01   5.152606E-01   1.266502E+01   2.581986E-01   8.514979E-01   7.118312E+00   1.120231E+01   4.523093E+00   5.404618E-01   7.110794E+00   2.605235E+00   1.362827E+01   7.213801E+00   3.384328E+00   5.347501E+00   8.707957E+00   2.527622E+00   2.422790E+00   1.181725E+01   2.830413E+00   5.350334E+00   2.010627E-01   9.025176E-01   1.117192E+01   1.053285E+01   2.870434E+00   1.407900E+01   7.803152E+00   4.774310E+00   1.095543E+01   1.205215E+00   3.011734E+00   1.471624E+00   1.216419E+00   2.518070E+00   9.629884E+00   2.294373E-01   2.032557E+00   3.202205E+00   8.313582E+00   3.193364E+00   1.156898E+00   1.524525E+00   1.342214E+00   5.385599E+00   2.023783E-01   3.154043E+00   1.977162E+00   8.606615E-01   4.795718E-01   4.343466E+00   1.301209E+00   4.278212E+00   1.684982E+00   1.995019E-01   3.419369E+00   2.811556E+00   7.668123E+00   2.688931E+00   1.463711E+01   1.016432E+00   4.287897E+00   5.899380E+00   2.047235E-01   2.681656E+00   4.222601E+00   8.236979E-01   4.024962E+00   1.470224E+01   1.248744E+01   4.454930E+00   5.385747E+00   7.328820E-01   2.818747E+00   7.288462E+00   6.464839E+00   4.228322E+00   1.625627E+00   3.922194E+00   4.601586E+00   4.947153E+00   4.969760E-01   1.664220E+00   3.635233E+00   1.015010E+00   1.764670E+00   7.313912E+00   4.315246E-01   1.248109E+00   9.800666E-01   9.438546E-01   2.996915E+00   3.119287E+00   1.040489E+00   4.619810E+00   1.464019E+01   4.166072E-01   2.710405E+00   5.905549E+00   2.024617E-01   3.949358E+00   3.098704E+00   2.080171E-01   3.555262E+00   1.446921E+01   2.124874E+01   3.283840E+00   4.313018E+00   8.721404E-01   1.237006E+00   3.649861E+00   5.797100E+00   1.321788E+00   1.307396E+01   1.054635E+00   3.060007E+00   4.181909E+00   1.706561E+01   3.991757E-01   4.034944E+00   5.512770E-01   4.924206E+00   8.944121E+00   2.655790E-01   8.868854E-01   6.655274E+00   8.645969E-01   3.064383E+00   7.921413E+00   1.564302E+00   2.366331E-01   1.047856E+01   7.096975E+00   3.220436E+00   6.169874E+00   5.682049E-01   4.531597E+00   1.379595E+01   1.547895E+01   2.120439E-01   8.846612E+00   2.020155E-01   4.030503E+00   1.421577E+01   1.332416E+01   3.664945E+00   1.403316E+01   5.622331E-01   1.392755E+00   1.263621E+01   1.637619E+00   7.271807E-01   5.003084E+00   1.312003E+00   1.587077E+00   2.214167E+00   2.200593E-01   2.081754E-01   1.021870E+01   7.327450E-01   3.073041E+00   2.720308E+00   1.031514E+00   5.341570E-01   1.257494E+00   2.709475E-01   2.084433E-01   2.908349E+00   1.185040E+01   2.400693E+00   9.778727E+00   5.660572E+00   3.395330E+00   4.732205E+00   9.323860E-01   3.208933E+00   6.918626E+00   1.972333E+00   4.500688E+00   6.616115E+00   2.606145E-01   2.407716E+00   9.234545E+00   9.580204E-01   3.688416E+00   5.875860E+00   2.017924E-01   1.581638E+00   7.026350E+00   3.855669E+00   3.982506E+00   1.215754E+01   1.131641E+01   3.480499E+00   2.571307E+00   2.285708E-01   4.731177E+00   1.228433E+01   1.274842E+01   1.314045E+00   2.974741E+00   1.193649E+00   1.771941E+00   5.471378E+00   1.906793E+01   6.166305E-01   6.518368E+00   4.646529E-01   1.203566E+00   7.989538E+00   1.118702E+00   8.583892E-01   3.123023E+00   9.584984E+00   3.114808E+00   4.299008E+00   2.396364E-01   3.922888E+00   2.028606E+00   1.125156E+01   2.712771E-01   3.624016E+00   2.255743E-01   1.095042E+00   3.617469E-01   7.585013E-01   4.598516E+00   1.045464E+01   2.320520E-01   3.160646E+00   4.667923E+00   1.291871E+01   1.864744E+00   2.874304E-01   2.716584E+00   1.202592E+00   8.205687E+00   1.465820E+00   5.735745E-01   7.544414E+00   4.504072E-01   5.786887E-01   1.433931E+01   1.662612E+00   2.225123E+00   5.852640E+00   7.582904E-01   4.332749E+00   7.550827E+00   7.089026E+00   3.793284E+00   3.649156E+00   2.613296E-01   2.429741E+00   4.037553E+00   1.183363E+01   1.518385E+00   8.509564E-01   8.167082E+00   5.527905E-01   1.428839E+01   9.386389E+00   3.467217E+00   2.418625E+00   7.362173E+00   2.964677E+00   2.281351E+00   9.986092E+00   2.743500E+00   1.811969E+00   1.058963E+00   2.687114E+00   3.848674E+00   9.700437E-01   4.851031E+00   1.244993E+01   1.127838E+00   2.681949E+00   1.125178E+00   6.724715E-01   2.749953E+00   3.133398E+00   4.499768E+00   8.968354E-01   9.456690E+00   6.824306E-01   4.656640E+00   1.319394E+01   8.031334E-01   4.182866E+00   1.100783E+01   7.693696E-01   4.226029E+00   1.066256E+01   6.394035E-01  
[...]
<PointData Scalars="Diameter" Vectors="Velocity">
<DataArray type="Float32" Name="Diameter" format="ascii">
  4.000000E-01   4.000000E-01   4.000000E-01   4.000000E-01   4.000000E-01   4.000000E-01   4.000000E-01   4.000000E-01   4.000000E-01   4.000000E-01   4.000000E-01   4.000000E-01   4.000000E-01   4.000000E-01   4.000000E-01   4.000000E-01   4.000000E-01   4.000000E-01   4.000000E-01   4.000000E-01   4.000000E-01   4.000000E-01   4.000000E-01   4.000000E-01   4.000000E-01   4.000000E-01   4.000000E-01   4.000000E-01   4.000000E-01   4.000000E-01   4.000000E-01   4.000000E-01   4.000000E-01   4.000000E-01   4.000000E-01   4.000000E-01   4.000000E-01   4.000000E-01   4.000000E-01   4.000000E-01   4.000000E-01   4.000000E-01   4.000000E-01   4.000000E-01   4.000000E-01   4.000000E-01   4.000000E-01   4.000000E-01   4.000000E-01   4.000000E-01   4.000000E-01   4.000000E-01   4.000000E-01   4.000000E-01   4.000000E-01   4.000000E-01   4.000000E-01   4.000000E-01   4.000000E-01   4.000000E-01   4.000000E-01   4.000000E-01   4.000000E-01   4.000000E-01   4.000000E-01   4.000000E-01   4.000000E-01   4.000000E-01   4.000000E-01   4.000000E-01   4.000000E-01   4.000000E-01   4.000000E-01   4.000000E-01   4.000000E-01   4.000000E-01   4.000000E-01   4.000000E-01   4.000000E-01   4.000000E-01   4.000000E-01   4.000000E-01   4.000000E-01   4.000000E-01   4.000000E-01   4.000000E-01   4.000000E-01   4.000000E-01   4.000000E-01   4.000000E-01   4.000000E-01   4.000000E-01   4.000000E-01   4.000000E-01   4.000000E-01   4.000000E-01   4.000000E-01   4.000000E-01   4.000000E-01   4.000000E-01   4.000000E-01   4.000000E-01   4.000000E-01   4.000000E-01   4.000000E-01   4.000000E-01   4.000000E-01   4.000000E-01   4.000000E-01   4.000000E-01   4.000000E-01   4.000000E-01   4.000000E-01   4.000000E-01   4.000000E-01   4.000000E-01   4.000000E-01   4.000000E-01   4.000000E-01   4.000000E-01   4.000000E-01   4.000000E-01   4.000000E-01   4.000000E-01   4.000000E-01   4.000000E-01   4.000000E-01   4.000000E-01   4.000000E-01   4.000000E-01   4.000000E-01   4.000000E-01   4.000000E-01   4.000000E-01   4.000000E-01   4.000000E-01   4.000000E-01   4.000000E-01   4.000000E-01   4.000000E-01   4.000000E-01   4.000000E-01   4.000000E-01   4.000000E-01   4.000000E-01   4.000000E-01   4.000000E-01   4.000000E-01   4.000000E-01   4.000000E-01   4.000000E-01   4.000000E-01   4.000000E-01   4.000000E-01   4.000000E-01   4.000000E-01   4.000000E-01   4.000000E-01   4.000000E-01   4.000000E-01   4.000000E-01   4.000000E-01   4.000000E-01   4.000000E-01   4.000000E-01   4.000000E-01   4.000000E-01   4.000000E-01   4.000000E-01   4.000000E-01   4.000000E-01   4.000000E-01   4.000000E-01   4.000000E-01   4.000000E-01   4.000000E-01   4.000000E-01   4.000000E-01   4.000000E-01   4.000000E-01   4.000000E-01   4.000000E-01   4.000000E-01   4.000000E-01   4.000000E-01   4.000000E-01   4.000000E-01   4.000000E-01   4.000000E-01   4.000000E-01   4.000000E-01   4.000000E-01   4.000000E-01   4.000000E-01   4.000000E-01   4.000000E-01   4.000000E-01   4.000000E-01   4.000000E-01   4.000000E-01   4.000000E-01   4.000000E-01   4.000000E-01   4.000000E-01   4.000000E-01   4.000000E-01   4.000000E-01   4.000000E-01   4.000000E-01   4.000000E-01   4.000000E-01   4.000000E-01   4.000000E-01   4.000000E-01   4.000000E-01   4.000000E-01   4.000000E-01   4.000000E-01   4.000000E-01   4.000000E-01   4.000000E-01   4.000000E-01   4.000000E-01   4.000000E-01   4.000000E-01   4.000000E-01   4.000000E-01   4.000000E-01   4.000000E-01   4.000000E-01   4.000000E-01   4.000000E-01   4.000000E-01   4.000000E-01   4.000000E-01   4.000000E-01   4.000000E-01   4.000000E-01   4.000000E-01   4.000000E-01   4.000000E-01   4.000000E-01   4.000000E-01   4.000000E-01   4.000000E-01   4.000000E-01   4.000000E-01   4.000000E-01   4.000000E-01   4.000000E-01   4.000000E-01   4.000000E-01   4.000000E-01   4.000000E-01   4.000000E-01   4.000000E-01   4.000000E-01   4.000000E-01   4.000000E-01   4.000000E-01   4.000000E-01   4.000000E-01   4.000000E-01   4.000000E-01   4.000000E-01   4.000000E-01   4.000000E-01   4.000000E-01   4.000000E-01   4.000000E-01   4.000000E-01   4.000000E-01   4.000000E-01   4.000000E-01   4.000000E-01   4.000000E-01   4.000000E-01   4.000000E-01   4.000000E-01   4.000000E-01   4.000000E-01   4.000000E-01   4.000000E-01   4.000000E-01   4.000000E-01   4.000000E-01   4.000000E-01   4.000000E-01   4.000000E-01   4.000000E-01   4.000000E-01   4.000000E-01   4.000000E-01   4.000000E-01   4.000000E-01   4.000000E-01   4.000000E-01   4.000000E-01   4.000000E-01   4.000000E-01   4.000000E-01   4.000000E-01   4.000000E-01   4.000000E-01   4.000000E-01   4.000000E-01   4.000000E-01   4.000000E-01   4.000000E-01   4.000000E-01   4.000000E-01   4.000000E-01   4.000000E-01   4.000000E-01   4.000000E-01   4.000000E-01   4.000000E-01   4.000000E-01   4.000000E-01   4.000000E-01   4.000000E-01   4.000000E-01   4.000000E-01   4.000000E-01   4.000000E-01   4.000000E-01   4.000000E-01   4.000000E-01   4.000000E-01   4.000000E-01   4.000000E-01   4.000000E-01   4.000000E-01   4.000000E-01   4.000000E-01   4.000000E-01   4.000000E-01   4.000000E-01   4.000000E-01   4.000000E-01   4.000000E-01   4.000000E-01   4.000000E-01   4.000000E-01   4.000000E-01   4.000000E-01   4.000000E-01   4.000000E-01   4.000000E-01   4.000000E-01   4.000000E-01   4.000000E-01   4.000000E-01   4.000000E-01   4.000000E-01   4.000000E-01   4.000000E-01   4.000000E-01   4.000000E-01   4.000000E-01   4.000000E-01   4.000000E-01   4.000000E-01   4.000000E-01   4.000000E-01   4.000000E-01   4.000000E-01   4.000000E-01   4.000000E-01   4.000000E-01   4.000000E-01   4.000000E-01   4.000000E-01   4.000000E-01   4.000000E-01   4.000000E-01   4.000000E-01   4.000000E-01   4.000000E-01   4.000000E-01   4.000000E-01   4.000000E-01   4.000000E-01   4.000000E-01   4.000000E-01   4.000000E-01   4.000000E-01   4.000000E-01   4.000000E-01   4.000000E-01   4.000000E-01   4.000000E-01   4.000000E-01   4.000000E-01   4.000000E-01   4.000000E-01   4.000000E-01   4.000000E-01   4.000000E-01   4.000000E-01   4.000000E-01   4.000000E-01   4.000000E-01   4.000000E-01   4.000000E-01   4.000000E-01   4.000000E-01   4.000000E-01   4.000000E-01   4.000000E-01   4.000000E-01   4.000000E-01   4.000000E-01   4.000000E-01   4.000000E-01   4.000000E-01   4.000000E-01   4.000000E-01   4.000000E-01   4.000000E-01   4.000000E-01   4.000000E-01   4.000000E-01   4.000000E-01   4.000000E-01   4.000000E-01   4.000000E-01   4.000000E-01   4.000000E-01   4.000000E-01   4.000000E-01   4.000000E-01   4.000000E-01   4.000000E-01   4.000000E-01   4.000000E-01   4.000000E-01   4.000000E-01   4.000000E-01   4.000000E-01   4.000000E-01   4.000000E-01   4.000000E-01   4.000000E-01   4.000000E-01   4.000000E-01   4.000000E-01   4.000000E-01   4.000000E-01   4.000000E-01   4.000000E-01   4.000000E-01   4.000000E-01   4.000000E-01   4.000000E-01   4.000000E-01   4.000000E-01   4.000000E-01   4.000000E-01   4.000000E-01   4.000000E-01   4.000000E-01   4.000000E-01   4.000000E-01   4.000000E-01   4.000000E-01   4.000000E-01   4.000000E-01   4.000000E-01   4.000000E-01   4.000000E-01   4.000000E-01   4.000000E-01   4.000000E-01   4.000000E-01   4.000000E-01   4.000000E-01   4.000000E-01   4.000000E-01   4.000000E-01   4.000000E-01   4.000000E-01   4.000000E-01   4.000000E-01   4.000000E-01   4.000000E-01   4.000000E-01   4.000000E-01   4.000000E-01   4.000000E-01   4.000000E-01   4.000000E-01   4.000000E-01   4.000000E-01   4.000000E-01   4.000000E-01   4.000000E-01   4.000000E-01   4.000000E-01   4.000000E-01   4.000000E-01   4.000000E-01   4.000000E-01   4.000000E-01   4.000000E-01   4.000000E-01   4.000000E-01   4.000000E-01   4.000000E-01   4.000000E-01   4.000000E-01   4.000000E-01   4.000000E-01   4.000000E-01   4.000000E-01   4.000000E-01   4.000000E-01   4.000000E-01   4.000000E-01   4.000000E-01   4.000000E-01   4.000000E-01   4.000000E-01   4.000000E-01   4.000000E-01   4.000000E-01   4.000000E-01   4.000000E-01   4.000000E-01   4.000000E-01   4.000000E-01   4.000000E-01   4.000000E-01   4.000000E-01   4.000000E-01   4.000000E-01   4.000000E-01   4.000000E-01   4.000000E-01   4.000000E-01   4.000000E-01   4.000000E-01   4.000000E-01   4.000000E-01   4.000000E-01   4.000000E-01   4.000000E-01   4.000000E-01   4.000000E-01   4.000000E-01   4.000000E-01   4.000000E-01   4.000000E-01   4.000000E-01   4.000000E-01   4.000000E-01   4.000000E-01   4.000000E-01   4.000000E-01   4.000000E-01   4.000000E-01   4.000000E-01   4.000000E-01   4.000000E-01   4.000000E-01   4.000000E-01   4.000000E-01   4.000000E-01   4.000000E-01   4.000000E-01   4.000000E-01   4.000000E-01   4.000000E-01   4.000000E-01   4.000000E-01   4.000000E-01   4.000000E-01   4.000000E-01   4.000000E-01   4.000000E-01   4.000000E-01   4.000000E-01   4.000000E-01   4.000000E-01   4.000000E-01   4.000000E-01   4.000000E-01   4.000000E-01   4.000000E-01   4.000000E-01   4.000000E-01   4.000000E-01   4.000000E-01   4.000000E-01   4.000000E-01   4.000000E-01   4.000000E-01   4.000000E-01   4.000000E-01   4.000000E-01   4.000000E-01   4.000000E-01   4.000000E-01   4.000000E-01   4.000000E-01   4.000000E-01   4.000000E-01   4.000000E-01   4.000000E-01   4.000000E-01   4.000000E-01   4.000000E-01   4.000000E-01   4.000000E-01   4.000000E-01   4.000000E-01   4.000000E-01   4.000000E-01   4.000000E-01   4.000000E-01   4.000000E-01   4.000000E-01   4.000000E-01   4.000000E-01   4.000000E-01   4.000000E-01   4.000000E-01   4.000000E-01   4.000000E-01   4.000000E-01   4.000000E-01   4.000000E-01   4.000000E-01   4.000000E-01   4.000000E-01   4.000000E-01   4.000000E-01   4.000000E-01   4.000000E-01   4.000000E-01   4.000000E-01   4.000000E-01   4.000000E-01   4.000000E-01   4.000000E-01   4.000000E-01   4.000000E-01   4.000000E-01   4.000000E-01   4.000000E-01   4.000000E-01   4.000000E-01   4.000000E-01   4.000000E-01   4.000000E-01   4.000000E-01   4.000000E-01   4.000000E-01   4.000000E-01   4.000000E-01   4.000000E-01   4.000000E-01   4.000000E-01   4.000000E-01   4.000000E-01   4.000000E-01   4.000000E-01   4.000000E-01   4.000000E-01   4.000000E-01   4.000000E-01   4.000000E-01   4.000000E-01   4.000000E-01   4.000000E-01   4.000000E-01   4.000000E-01   4.000000E-01   4.000000E-01   4.000000E-01   4.000000E-01   4.000000E-01   4.000000E-01   4.000000E-01   4.000000E-01   4.000000E-01   4.000000E-01   4.000000E-01   4.000000E-01   4.000000E-01   4.000000E-01   4.000000E-01   4.000000E-01   4.000000E-01   4.000000E-01   4.000000E-01   4.000000E-01   4.000000E-01   4.000000E-01   4.000000E-01   4.000000E-01   4.000000E-01   4.000000E-01   4.000000E-01   4.000000E-01   4.000000E-01   4.000000E-01   4.000000E-01   4.000000E-01   4.000000E-01   4.000000E-01   4.000000E-01   4.000000E-01   4.000000E-01   4.000000E-01   4.000000E-01   4.000000E-01   4.000000E-01   4.000000E-01   4.000000E-01   4.000000E-01   4.000000E-01   4.000000E-01   4.000000E-01   4.000000E-01   4.000000E-01   4.000000E-01   4.000000E-01   4.000000E-01   4.000000E-01   4.000000E-01   4.000000E-01   4.000000E-01   4.000000E-01   4.000000E-01   4.000000E-01   4.000000E-01   4.000000E-01   4.000000E-01   4.000000E-01   4.000000E-01   4.000000E-01   4.000000E-01   4.000000E-01   4.000000E-01   4.000000E-01   4.000000E-01   4.000000E-01   4.000000E-01   4.000000E-01   4.000000E-01   4.000000E-01   4.000000E-01   4.000000E-01   4.000000E-01   4.000000E-01   4.000000E-01   4.000000E-01   4.000000E-01   4.000000E-01   4.000000E-01   4.000000E-01   4.000000E-01   4.000000E-01   4.000000E-01   4.000000E-01   4.000000E-01   4.000000E-01   4.000000E-01   4.000000E-01   4.000000E-01   4.000000E-01   4.000000E-01   4.000000E-01   4.000000E-01   4.000000E-01   4.000000E-01   4.000000E-01   4.000000E-01   4.000000E-01   4.000000E-01   4.000000E-01   4.000000E-01   4.000000E-01   4.000000E-01   4.000000E-01   4.000000E-01   4.000000E-01   4.000000E-01   4.000000E-01   4.000000E-01   4.000000E-01   4.000000E-01   4.000000E-01   4.000000E-01   4.000000E-01   4.000000E-01   4.000000E-01   4.000000E-01   4.000000E-01   4.000000E-01   4.000000E-01   4.000000E-01   4.000000E-01   4.000000E-01   4.000000E-01   4.000000E-01   4.000000E-01   4.000000E-01   4.000000E-01   4.000000E-01   4.000000E-01   4.000000E-01   4.000000E-01   4.000000E-01   4.000000E-01   4.000000E-01   4.000000E-01   4.000000E-01   4.000000E-01   4.000000E-01   4.000000E-01   4.000000E-01   4.000000E-01   4.000000E-01   4.000000E-01   4.000000E-01   4.000000E-01   4.000000E-01   4.000000E-01   4.000000E-01   4.000000E-01   4.000000E-01   4.000000E-01   4.000000E-01   4.000000E-01   4.000000E-01   4.000000E-01   4.000000E-01   4.000000E-01   4.000000E-01   4.000000E-01   4.000000E-01   4.000000E-01   4.000000E-01   4.000000E-01   4.000000E-01   4.000000E-01   4.000000E-01   4.000000E-01   4.000000E-01   4.000000E-01   4.000000E-01   4.000000E-01   4.000000E-01   4.000000E-01   4.000000E-01   4.000000E-01   4.000000E-01   4.000000E-01   4.000000E-01   4.000000E-01   4.000000E-01   4.000000E-01   4.000000E-01   4.000000E-01   4.000000E-01   4.000000E-01   4.000000E-01   4.000000E-01   4.000000E-01   4.000000E-01   4.000000E-01   4.000000E-01   4.000000E-01   4.000000E-01   4.000000E-01   4.000000E-01   4.000000E-01   4.000000E-01   4.000000E-01   4.000000E-01   4.000000E-01   4.000000E-01   4.000000E-01   4.000000E-01   4.000000E-01   4.000000E-01   4.000000E-01   4.000000E-01   4.000000E-01   4.000000E-01   4.000000E-01   4.000000E-01   4.000000E-01   4.000000E-01   4.000000E-01   4.000000E-01   4.000000E-01   4.000000E-01   4.000000E-01   4.000000E-01   4.000000E-01   4.000000E-01   4.000000E-01   4.000000E-01   4.000000E-01   4.000000E-01   4.000000E-01   4.000000E-01   4.000000E-01   4.000000E-01   4.000000E-01   4.000000E-01   4.000000E-01   4.000000E-01   4.000000E-01   4.000000E-01   4.000000E-01   4.000000E-01   4.000000E-01   4.000000E-01   4.000000E-01   4.000000E-01   4.000000E-01   4.000000E-01   4.000000E-01   4.000000E-01   4.000000E-01   4.000000E-01   4.000000E-01   4.000000E-01   4.000000E-01   4.000000E-01   4.000000E-01   4.000000E-01   4.000000E-01   4.000000E-01   4.000000E-01   4.000000E-01   4.000000E-01   4.000000E-01   4.000000E-01   4.000000E-01   4.000000E-01   4.000000E-01   4.000000E-01   4.000000E-01   4.000000E-01   4.000000E-01   4.000000E-01   4.000000E-01   4.000000E-01   4.000000E-01   4.000000E-01   4.000000E-01   4.000000E-01   4.000000E-01   4.000000E-01   4.000000E-01   4.000000E-01   4.000000E-01   4.000000E-01   4.000000E-01   4.000000E-01   4.000000E-01   4.000000E-01   4.000000E-01   4.000000E-01   4.000000E-01   4.000000E-01   4.000000E-01   4.000000E-01   4.000000E-01   4.000000E-01   4.000000E-01   4.000000E-01   4.000000E-01   4.000000E-01   4.000000E-01   4.000000E-01   4.000000E-01   4.000000E-01   4.000000E-01   4.000000E-01   4.000000E-01   4.000000E-01   4.000000E-01   4.000000E-01   4.000000E-01   4.000000E-01   4.000000E-01   4.000000E-01   4.000000E-01   4.000000E-01   4.000000E-01   4.000000E-01   4.000000E-01   4.000000E-01   4.000000E-01   4.000000E-01   4.000000E-01   4.000000E-01   4.000000E-01   4.000000E-01   4.000000E-01   4.000000E-01   4.000000E-01   4.000000E-01   4.000000E-01   4.000000E-01   4.000000E-01   4.000000E-01   4.000000E-01   4.000000E-01   4.000000E-01   4.000000E-01   4.000000E-01   4.000000E-01   4.000000E-01   4.000000E-01   4.000000E-01   4.000000E-01   4.000000E-01   4.000000E-01   4.000000E-01   4.000000E-01   4.000000E-01   4.000000E-01   4.000000E-01   4.000000E-01   4.000000E-01   4.000000E-01   4.000000E-01   4.000000E-01   4.000000E-01   4.000000E-01   4.000000E-01   4.000000E-01   4.000000E-01   4.000000E-01   4.000000E-01   4.000000E-01   4.000000E-01   4.000000E-01   4.000000E-01   4.000000E-01   4.000000E-01   4.000000E-01   4.000000E-01   4.000000E-01   4.000000E-01   4.000000E-01   4.000000E-01   4.000000E-01   4.000000E-01   4.000000E-01   4.000000E-01   4.000000E-01   4.000000E-01   4.000000E-01   4.000000E-01   4.000000E-01   4.000000E-01   4.000000E-01   4.000000E-01   4.000000E-01   4.000000E-01   4.000000E-01   4.000000E-01   4.000000E-01   4.000000E-01   4.000000E-01   4.000000E-01   4.000000E-01   4.000000E-01   4.000000E-01   4.000000E-01   4.000000E-01   4.000000E-01   4.000000E-01   4.000000E-01   4.000000E-01   4.000000E-01   4.000000E-01   4.000000E-01   4.000000E-01   4.000000E-01   4.000000E-01   4.000000E-01   4.000000E-01   4.000000E-01   4.000000E-01   4.000000E-01   4.000000E-01   4.000000E-01   4.000000E-01   4.000000E-01   4.000000E-01   4.000000E-01   4.000000E-01   4.000000E-01   4.000000E-01   4.000000E-01   4.000000E-01   4.000000E-01   4.000000E-01   4.000000E-01   4.000000E-01   4.000000E-01   4.000000E-01   4.000000E-01   4.000000E-01   4.000000E-01   4.000000E-01   4.000000E-01   4.000000E-01   4.000000E-01   4.000000E-01   4.000000E-01   4.000000E-01   4.000000E-01   4.000000E-01   4.000000E-01   4.000000E-01   4.000000E-01   4.000000E-01   4.000000E-01   4.000000E-01   4.000000E-01   4.000000E-01   4.000000E-01   4.000000E-01   4.000000E-01   4.000000E-01   4.000000E-01   4.000000E-01   4.000000E-01   4.000000E-01   4.000000E-01   4.000000E-01   4.000000E-01   4.000000E-01   4.000000E-01   4.000000E-01   4.000000E-01   4.000000E-01   4.000000E-01   4.000000E-01   4.000000E-01   4.000000E-01   4.000000E-01   4.000000E-01   4.000000E-01   4.000000E-01   4.000000E-01   4.000000E-01   4.000000E-01   4.000000E-01   4.000000E-01   4.000000E-01   4.000000E-01   4.000000E-01   4.000000E-01   4.000000E-01   4.000000E-01   4.000000E-01   4.000000E-01   4.000000E-01   4.000000E-01   4.000000E-01   4.000000E-01   4.000000E-01   4.000000E-01   4.000000E-01   4.000000E-01   4.000000E-01   4.000000E-01   4.000000E-01   4.000000E-01   4.000000E-01   4.000000E-01   4.000000E-01   4.000000E-01   4.000000E-01   4.000000E-01   4.000000E-01   4.000000E-01   4.000000E-01   4.000000E-01   4.000000E-01   4.000000E-01   4.000000E-01   4.000000E-01   4.000000E-01   4.000000E-01   4.000000E-01   4.000000E-01   4.000000E-01   4.000000E-01   4.000000E-01   4.000000E-01   4.000000E-01   4.000000E-01   4.000000E-01   4.000000E-01   4.000000E-01   4.000000E-01   4.000000E-01   4.000000E-01   4.000000E-01   4.000000E-01   4.000000E-01   4.000000E-01   4.000000E-01   4.000000E-01   4.000000E-01   4.000000E-01   4.000000E-01   4.000000E-01   4.000000E-01   4.000000E-01   4.000000E-01   4.000000E-01   4.000000E-01   4.000000E-01   4.000000E-01   4.000000E-01   4.000000E-01   4.000000E-01   4.000000E-01   4.000000E-01   4.000000E-01   4.000000E-01   4.000000E-01   4.000000E-01   4.000000E-01   4.000000E-01   4.000000E-01   4.000000E-01   4.000000E-01   4.000000E-01   4.000000E-01   4.000000E-01   4.000000E-01   4.000000E-01   4.000000E-01   4.000000E-01   4.000000E-01   4.000000E-01   4.000000E-01   4.000000E-01   4.000000E-01   4.000000E-01   4.000000E-01   4.000000E-01   4.000000E-01   4.000000E-01   4.000000E-01   4.000000E-01   4.000000E-01   4.000000E-01   4.000000E-01   4.000000E-01   4.000000E-01   4.000000E-01   4.000000E-01   4.000000E-01   4.000000E-01   4.000000E-01   4.000000E-01   4.000000E-01   4.000000E-01   4.000000E-01   4.000000E-01   4.000000E-01   4.000000E-01   4.000000E-01   4.000000E-01   4.000000E-01   4.000000E-01   4.000000E-01   4.000000E-01   4.000000E-01   4.000000E-01   4.000000E-01   4.000000E-01   4.000000E-01   4.000000E-01   4.000000E-01   4.000000E-01   4.000000E-01   4.000000E-01   4.000000E-01   4.000000E-01   4.000000E-01   4.000000E-01   4.000000E-01   4.000000E-01   4.000000E-01   4.000000E-01   4.000000E-01   4.000000E-01   4.000000E-01   4.000000E-01   4.000000E-01   4.000000E-01   4.000000E-01   4.000000E-01   4.000000E-01   4.000000E-01   4.000000E-01   4.000000E-01   4.000000E-01   4.000000E-01   4.000000E-01   4.000000E-01   4.000000E-01   4.000000E-01   4.000000E-01   4.000000E-01   4.000000E-01   4.000000E-01   4.000000E-01   4.000000E-01   4.000000E-01   