<?xml version="1.0"?>
<!-- Time =  2.3002176260279747E+00s -->
<VTKFile type="PolyData" version="0.1" byte_order="LittleEndian">
<PolyData>
<Piece NumberOfPoints="0000002400" NumberOfVerts="0" NumberOfLines="0" NumberOfStrips="0" NumberOfPolys="0">
<Points>
<DataArray type="Float32" Name="Position" NumberOfComponents="3" format="ascii">
  1.313865E+00   2.031703E-01   2.514176E-01   7.037808E+00   1.914570E+00   1.001349E+00   9.959442E+00   7.751885E-01   2.487274E+00   6.405635E+00   9.597403E-01   3.277839E+00   4.854041E+00   2.638364E-01   2.963756E+00   4.818695E+00   1.119339E+01   2.786379E+00   1.457349E+01   1.687062E+00   1.089301E+00   1.185120E+01   6.344970E-01   4.550068E+00   1.386266E+01   1.990925E-01   2.908396E+00   6.903716E+00   2.081416E-01   3.389581E+00   8.576699E+00   6.972441E-01   2.740764E+00   4.002377E+00   1.583290E+01   4.715813E-01   6.648140E+00   1.396462E+00   1.768011E+00   1.963489E+00   1.097732E+00   1.672438E+00   3.783923E+00   5.959398E-01   3.768462E+00   7.398167E+00   1.043564E+01   1.395251E+00   6.178611E+00   1.987459E-01   2.301974E-01   2.784412E+00   7.124109E+00   3.184593E+00   5.513778E+00   1.146371E+01   3.770488E+00   1.478917E+01   1.468529E+01   1.408249E+00   9.306291E+00   7.015048E-01   1.774127E+00   4.622080E+00   1.041244E+01   4.942456E+00   5.292973E+00   1.693843E+01   1.703220E+00   1.847189E+00   1.040643E+00   3.527817E+00   1.402212E+01   3.114785E-01   8.351656E-01   1.075083E+00   2.163943E-01   4.591324E+00   1.050943E+01   7.459062E-01   6.419335E-01   6.038336E+00   1.078840E+00   4.591053E+00   3.086162E+00   2.494365E-01   1.346839E+00   3.994009E+00   2.158246E-01   2.434480E+00   7.310394E+00   6.089255E-01   2.836773E+00   2.881109E+00   2.486553E+00   2.421795E-01   2.383811E+00   9.891977E-01   4.464692E+00   2.309813E+00   5.059335E-01   4.028599E+00   5.367640E+00   5.084804E-01   2.094847E-01   6.575189E+00   1.999006E-01   4.434239E+00   1.266872E+01   8.493984E-01   3.329863E+00   4.564586E+00   2.714866E+00   4.198483E-01   2.466370E+00   7.275795E-01   2.519293E+00   3.474852E+00   7.346634E+00   2.150736E+00   5.820686E+00   1.161242E+00   7.930326E-01   3.869154E+00   1.501624E+01   2.092700E+00   5.005206E+00   1.980597E-01   8.856794E-01   4.703614E+00   1.309917E+01   9.851724E-01   2.969308E+00   8.640368E+00   3.502280E+00   5.609982E+00   9.151472E-01   4.311522E+00   2.292963E+00   2.121578E-01   1.124961E+00   1.346033E+01   2.629223E-01   2.651628E+00   1.065096E+01   1.570851E+01   2.161363E-01   1.212278E+01   1.533374E+00   2.518526E+00   7.308972E+00   6.285980E+00   2.090001E+00   3.982467E+00   3.597704E+00   5.641944E-01   3.215302E+00   7.898732E+00   4.258594E+00   1.782499E+00   1.078829E+00   2.500317E-01   7.167143E+00   6.201613E+00   1.084054E+00   6.339842E+00   1.060790E+00   5.423343E-01   1.481015E+01   1.306154E+00   3.925514E+00   5.926300E+00   4.346485E+00   7.059182E-01   5.760016E+00   4.095831E+00   1.862939E+00   5.111906E+00   5.087600E+00   2.142601E+00   9.036565E+00   7.521951E+00   9.606593E-01   2.455873E+00   5.498132E+00   2.530555E+00   6.165938E+00   2.646632E-01   8.893536E-01   6.913739E+00   1.117947E+00   4.227659E+00   1.079940E+01   3.840450E+00   1.993859E+00   7.978005E+00   8.628347E+00   4.138507E+00   1.163003E+01   1.323200E+01   3.837329E+00   2.268304E+00   1.141681E+00   8.640386E-01   4.923950E+00   1.193697E+01   2.091125E+00   3.022683E+00   1.954581E+00   4.873434E+00   1.648208E+00   8.461173E-01   4.813327E+00   6.565426E+00   5.649151E-01   3.576328E+00   6.439980E+00   1.152245E+01   2.816422E+00   5.195986E+00   7.417217E-01   3.598356E+00   6.852100E+00   1.403592E+01   3.704412E+00   1.129613E+01   1.617052E+01   6.285256E-01   9.267428E+00   2.563638E-01   2.129510E+00   1.077430E+01   2.359023E+00   3.836677E+00   4.973697E+00   2.100094E-01   1.506259E+00   5.573979E+00   1.099394E+01   2.985147E+00   6.351564E+00   5.089869E+00   1.658296E+00   1.184165E+01   9.656783E+00   4.526111E+00   9.713080E+00   1.113330E+01   7.919236E-01   1.215211E+01   5.548373E-01   1.738536E+00   1.133003E+01   1.921704E+00   4.176638E+00   3.159872E+00   1.898461E+00   2.125900E+00   5.258193E+00   9.232752E+00   2.716090E+00   6.437140E+00   3.661897E+00   1.772534E+00   5.478247E+00   6.994628E-01   1.145616E+00   3.712819E+00   2.113514E-01   1.260871E+00   1.156055E+01   7.762364E+00   4.210747E+00   6.413064E+00   2.406171E+00   5.544274E-01   3.093839E+00   6.228796E-01   4.824562E+00   8.089280E+00   3.883733E-01   1.712750E+00   6.847932E+00   5.366672E+00   4.893901E+00   1.164708E+01   3.430646E+00   2.686394E+00   4.917392E+00   1.200504E+01   3.631010E+00   5.299156E+00   2.629373E-01   3.329298E+00   6.767730E-01   2.015579E-01   4.585991E+00   1.294327E+01   8.250801E+00   6.842790E-01   2.117745E+00   9.135374E-01   2.245300E+00   7.523873E+00   1.252422E+01   9.598927E-01   8.377686E+00   2.677090E-01   1.230969E+00   1.103427E+00   5.505563E-01   3.350932E+00   4.317477E+00   9.299693E-01   3.692255E+00   5.506973E+00   2.010614E-01   1.660413E+00   1.732788E+00   5.828946E-01   5.733731E-01   1.099626E+00   1.810356E+00   5.277985E-01   4.341475E+00   2.311620E+00   2.787577E+00   7.927156E+00   7.601371E+00   4.958603E-01   6.155882E+00   7.721679E+00   1.005828E+00   1.471355E+01   4.297721E-01   1.835717E+00   4.729611E+00   9.030514E+00   3.228401E+00   1.287496E+01   7.854832E+00   3.953439E+00   3.734642E+00   4.211481E+00   2.831145E+00   6.096128E+00   8.324964E-01   8.953310E-01   1.310867E+01   1.093938E+01   3.762765E+00   3.868798E+00   9.043850E+00   1.215554E+00   1.470813E+01   1.167572E+00   2.263437E+00   1.370389E+01   3.811286E-01   1.645484E+00   5.928581E+00   4.947266E-01   2.579064E+00   5.271132E+00   4.482171E+00   4.771323E+00   3.909968E+00   9.066737E-01   3.494083E+00   3.726924E+00   1.141798E+01   5.180417E-01   6.231340E+00   5.242127E-01   1.190596E+00   4.510530E+00   5.284343E-01   4.788035E+00   6.018150E+00   1.208690E+00   1.207435E+00   6.761456E+00   3.262791E+00   3.653923E+00   6.600333E+00   3.230581E+00   2.613552E+00   2.206176E+00   5.334152E-01   3.346800E+00   1.651911E+00   1.060543E+01   1.637038E+00   6.265419E+00   2.944621E+00   1.720976E+00   2.047128E+00   1.939178E+00   1.516356E+00   8.210618E+00   1.311763E+01   1.305740E+00   6.846583E+00   7.801982E-01   8.507859E-01   1.196342E+01   1.477259E+00   3.993255E+00   6.484837E+00   2.450907E+00   3.489473E+00   4.987268E+00   3.940900E-01   3.609249E+00   8.558395E+00   1.143674E+01   1.294972E+00   9.051364E+00   1.529427E+00   4.049151E+00   8.340073E-01   5.815760E-01   2.805586E+00   9.531389E+00   1.338108E+01   3.483421E+00   3.786930E+00   1.978403E-01   8.019167E-01   2.509853E+00   7.375965E-01   3.623088E+00   2.849931E+00   2.294841E-01   2.425630E+00   4.164196E+00   1.012413E+00   1.751209E+00   2.353359E+00   1.230492E+00   3.927602E+00   1.830336E+00   1.757298E+01   3.058663E+00   1.342245E+00   6.264758E-01   3.666652E+00   6.931462E+00   1.940193E+01   2.330650E+00   8.920118E-01   2.248391E-01   1.665698E+00   5.250037E+00   7.023317E+00   4.023102E+00   1.015699E+01   2.688453E-01   2.621886E+00   1.826264E+00   1.159232E+01   1.366632E+00   4.136921E+00   6.627189E+00   4.477804E+00   1.653446E+00   3.045772E-01   1.408377E+00   1.284583E+01   3.515003E+00   2.691259E+00   6.429573E+00   1.606079E+01   4.527660E+00   3.607608E+00   7.422316E-01   1.379982E+00   1.146631E+01   8.744590E-01   9.499810E-01   1.225363E+01   2.090206E-01   4.276356E+00   1.079254E+01   2.851271E-01   2.996742E+00   2.201028E+00   6.654835E+00   2.395403E+00   6.951410E-01   6.206915E-01   2.033856E-01   7.675604E-01   2.614480E-01   2.073298E+00   3.321761E-01   5.903761E-01   3.696906E-01   4.158384E+00   2.347749E-01   1.145044E+00   8.135682E+00   1.116554E+01   1.740539E+00   1.242423E+01   6.041602E+00   1.047383E+00   4.513535E+00   1.983920E+01   1.142605E+00   3.490404E+00   3.406151E+00   3.361260E+00   2.751565E+00   2.056129E-01   4.358623E+00   3.270731E+00   6.539894E-01   3.491658E+00   6.252792E+00   1.529035E+00   1.597929E+00   4.622248E+00   2.070140E-01   1.054678E+00   5.899649E+00   5.396228E-01   3.238918E+00   4.698686E+00   9.115824E+00   1.120971E+00   7.634405E+00   1.089001E+00   3.476112E+00   4.562084E+00   2.674907E-01   2.086928E-01   7.428452E+00   6.677061E-01   2.829747E-01   1.877955E+00   1.269811E+01   2.903621E+00   2.921608E+00   6.447752E-01   1.156141E+00   9.979823E+00   2.123757E-01   2.099314E+00   5.806966E+00   7.725665E+00   4.345666E+00   6.427257E+00   3.052117E+00   4.307952E+00   9.146700E+00   5.326647E-01   4.621725E+00   7.648606E-01   5.886407E-01   6.172556E-01   5.365784E+00   5.686986E+00   2.229234E+00   2.282411E+00   1.608794E+00   2.546755E+00   2.978224E+00   3.203171E-01   7.031155E-01   6.635819E+00   4.939992E+00   2.160922E+00   2.616803E-01   5.163269E-01   3.581550E+00   6.022358E+00   2.304442E-01   3.766242E+00   8.757659E+00   5.129834E+00   3.173909E+00   4.658441E+00   5.344545E-01   2.595857E+00   3.295144E-01   1.598945E+00   4.442627E+00   1.101953E+00   5.807232E-01   2.895595E-01   4.076089E+00   1.116235E+01   3.816138E+00   3.241238E+00   9.924195E-01   2.705525E+00   6.537802E+00   2.679481E-01   1.099614E+00   4.943890E+00   5.600476E+00   4.350585E-01   1.296321E+01   9.602857E+00   3.765580E+00   7.475259E+00   3.173553E+00   1.627475E+00   1.069173E+01   4.948817E-01   3.499016E+00   6.358393E+00   3.609496E+00   2.420052E-01   8.185926E+00   1.098551E+01   2.159739E+00   2.118055E+00   2.127863E-01   2.612714E+00   1.626144E+00   1.838970E+00   1.956323E+00   6.446355E+00   9.882437E+00   2.061637E+00   1.000713E+01   7.636075E+00   4.897477E+00   1.455553E+01   2.924561E-01   2.941791E+00   3.662874E+00   1.076404E+00   1.028376E+00   1.206839E+00   1.019588E+00   4.979439E+00   1.140982E+01   2.319602E-01   2.132507E+00   5.564057E+00   1.404396E+01  
[...]
<PointData Scalars="Diameter" Vectors="Velocity">
<DataArray type="Float32" Name="Diameter" format="ascii">
  4.000000E-01   4.000000E-01   4.000000E-01   4.000000E-01   4.000000E-01   4.000000E-01   4.000000E-01   4.000000E-01   4.000000E-01   4.000000E-01   4.000000E-01   4.000000E-01   4.000000E-01   4.000000E-01   4.000000E-01   4.000000E-01   4.000000E-01   4.000000E-01   4.000000E-01   4.000000E-01   4.000000E-01   4.000000E-01   4.000000E-01   4.000000E-01   4.000000E-01   4.000000E-01   4.000000E-01   4.000000E-01   4.000000E-01   4.000000E-01   4.000000E-01   4.000000E-01   4.000000E-01   4.000000E-01   4.000000E-01   4.000000E-01   4.000000E-01   4.000000E-01   4.000000E-01   4.000000E-01   4.000000E-01   4.000000E-01   4.000000E-01   4.000000E-01   4.000000E-01   4.000000E-01   4.000000E-01   4.000000E-01   4.000000E-01   4.000000E-01   4.000000E-01   4.000000E-01   4.000000E-01   4.000000E-01   4.000000E-01   4.000000E-01   4.000000E-01   4.000000E-01   4.000000E-01   4.000000E-01   4.000000E-01   4.000000E-01   4.000000E-01   4.000000E-01   4.000000E-01   4.000000E-01   4.000000E-01   4.000000E-01   4.000000E-01   4.000000E-01   4.000000E-01   4.000000E-01   4.000000E-01   4.000000E-01   4.000000E-01   4.000000E-01   4.000000E-01   4.000000E-01   4.000000E-01   4.000000E-01   4.000000E-01   4.000000E-01   4.000000E-01   4.000000E-01   4.000000E-01   4.000000E-01   4.000000E-01   4.000000E-01   4.000000E-01   4.000000E-01   4.000000E-01   4.000000E-01   4.000000E-01   4.000000E-01   4.000000E-01   4.000000E-01   4.000000E-01   4.000000E-01   4.000000E-01   4.000000E-01   4.000000E-01   4.000000E-01   4.000000E-01   4.000000E-01   4.000000E-01   4.000000E-01   4.000000E-01   4.000000E-01   4.000000E-01   4.000000E-01   4.000000E-01   4.000000E-01   4.000000E-01   4.000000E-01   4.000000E-01   4.000000E-01   4.000000E-01   4.000000E-01   4.000000E-01   4.000000E-01   4.000000E-01   4.000000E-01   4.000000E-01   4.000000E-01   4.000000E-01   4.000000E-01   4.000000E-01   4.000000E-01   4.000000E-01   4.000000E-01   4.000000E-01   4.000000E-01   4.000000E-01   4.000000E-01   4.000000E-01   4.000000E-01   4.000000E-01   4.000000E-01   4.000000E-01   4.000000E-01   4.000000E-01   4.000000E-01   4.000000E-01   4.000000E-01   4.000000E-01   4.000000E-01   4.000000E-01   4.000000E-01   4.000000E-01   4.000000E-01   4.000000E-01   4.000000E-01   4.000000E-01   4.000000E-01   4.000000E-01   4.000000E-01   4.000000E-01   4.000000E-01   4.000000E-01   4.000000E-01   4.000000E-01   4.000000E-01   4.000000E-01   4.000000E-01   4.000000E-01   4.000000E-01   4.000000E-01   4.000000E-01   4.000000E-01   4.000000E-01   4.000000E-01   4.000000E-01   4.000000E-01   4.000000E-01   4.000000E-01   4.000000E-01   4.000000E-01   4.000000E-01   4.000000E-01   4.000000E-01   4.000000E-01   4.000000E-01   4.000000E-01   4.000000E-01   4.000000E-01   4.000000E-01   4.000000E-01   4.000000E-01   4.000000E-01   4.000000E-01   4.000000E-01   4.000000E-01   4.000000E-01   4.000000E-01   4.000000E-01   4.000000E-01   4.000000E-01   4.000000E-01   4.000000E-01   4.000000E-01   4.000000E-01   4.000000E-01   4.000000E-01   4.000000E-01   4.000000E-01   4.000000E-01   4.000000E-01   4.000000E-01   4.000000E-01   4.000000E-01   4.000000E-01   4.000000E-01   4.000000E-01   4.000000E-01   4.000000E-01   4.000000E-01   4.000000E-01   4.000000E-01   4.000000E-01   4.000000E-01   4.000000E-01   4.000000E-01   4.000000E-01   4.000000E-01   4.000000E-01   4.000000E-01   4.000000E-01   4.000000E-01   4.000000E-01   4.000000E-01   4.000000E-01   4.000000E-01   4.000000E-01   4.000000E-01   4.000000E-01   4.000000E-01   4.000000E-01   4.000000E-01   4.000000E-01   4.000000E-01   4.000000E-01   4.000000E-01   4.000000E-01   4.000000E-01   4.000000E-01   4.000000E-01   4.000000E-01   4.000000E-01   4.000000E-01   4.000000E-01   4.000000E-01   4.000000E-01   4.000000E-01   4.000000E-01   4.000000E-01   4.000000E-01   4.000000E-01   4.000000E-01   4.000000E-01   4.000000E-01   4.000000E-01   4.000000E-01   4.000000E-01   4.000000E-01   4.000000E-01   4.000000E-01   4.000000E-01   4.000000E-01   4.000000E-01   4.000000E-01   4.000000E-01   4.000000E-01   4.000000E-01   4.000000E-01   4.000000E-01   4.000000E-01   4.000000E-01   4.000000E-01   4.000000E-01   4.000000E-01   4.000000E-01   4.000000E-01   4.000000E-01   4.000000E-01   4.000000E-01   4.000000E-01   4.000000E-01   4.000000E-01   4.000000E-01   4.000000E-01   4.000000E-01   4.000000E-01   4.000000E-01   4.000000E-01   4.000000E-01   4.000000E-01   4.000000E-01   4.000000E-01   4.000000E-01   4.000000E-01   4.000000E-01   4.000000E-01   4.000000E-01   4.000000E-01   4.000000E-01   4.000000E-01   4.000000E-01   4.000000E-01   4.000000E-01   4.000000E-01   4.000000E-01   4.000000E-01   4.000000E-01   4.000000E-01   4.000000E-01   4.000000E-01   4.000000E-01   4.000000E-01   4.000000E-01   4.000000E-01   4.000000E-01   4.000000E-01   4.000000E-01   4.000000E-01   4.000000E-01   4.000000E-01   4.000000E-01   4.000000E-01   4.000000E-01   4.000000E-01   4.000000E-01   4.000000E-01   4.000000E-01   4.000000E-01   4.000000E-01   4.000000E-01   4.000000E-01   4.000000E-01   4.000000E-01   4.000000E-01   4.000000E-01   4.000000E-01   4.000000E-01   4.000000E-01   4.000000E-01   4.000000E-01   4.000000E-01   4.000000E-01   4.000000E-01   4.000000E-01   4.000000E-01   4.000000E-01   4.000000E-01   4.000000E-01   4.000000E-01   4.000000E-01   4.000000E-01   4.000000E-01   4.000000E-01   4.000000E-01   4.000000E-01   4.000000E-01   4.000000E-01   4.000000E-01   4.000000E-01   4.000000E-01   4.000000E-01   4.000000E-01   4.000000E-01   4.000000E-01   4.000000E-01   4.000000E-01   4.000000E-01   4.000000E-01   4.000000E-01   4.000000E-01   4.000000E-01   4.000000E-01   4.000000E-01   4.000000E-01   4.000000E-01   4.000000E-01   4.000000E-01   4.000000E-01   4.000000E-01   4.000000E-01   4.000000E-01   4.000000E-01   4.000000E-01   4.000000E-01   4.000000E-01   4.000000E-01   4.000000E-01   4.000000E-01   4.000000E-01   4.000000E-01   4.000000E-01   4.000000E-01   4.000000E-01   4.000000E-01   4.000000E-01   4.000000E-01   4.000000E-01   4.000000E-01   4.000000E-01   4.000000E-01   4.000000E-01   4.000000E-01   4.000000E-01   4.000000E-01   4.000000E-01   4.000000E-01   4.000000E-01   4.000000E-01   4.000000E-01   4.000000E-01   4.000000E-01   4.000000E-01   4.000000E-01   4.000000E-01   4.000000E-01   4.000000E-01   4.000000E-01   4.000000E-01   4.000000E-01   4.000000E-01   4.000000E-01   4.000000E-01   4.000000E-01   4.000000E-01   4.000000E-01   4.000000E-01   4.000000E-01   4.000000E-01   4.000000E-01   4.000000E-01   4.000000E-01   4.000000E-01   4.000000E-01   4.000000E-01   4.000000E-01   4.000000E-01   4.000000E-01   4.000000E-01   4.000000E-01   4.000000E-01   4.000000E-01   4.000000E-01   4.000000E-01   4.000000E-01   4.000000E-01   4.000000E-01   4.000000E-01   4.000000E-01   4.000000E-01   4.000000E-01   4.000000E-01   4.000000E-01   4.000000E-01   4.000000E-01   4.000000E-01   4.000000E-01   4.000000E-01   4.000000E-01   4.000000E-01   4.000000E-01   4.000000E-01   4.000000E-01   4.000000E-01   4.000000E-01   4.000000E-01   4.000000E-01   4.000000E-01   4.000000E-01   4.000000E-01   4.000000E-01   4.000000E-01   4.000000E-01   4.000000E-01   4.000000E-01   4.000000E-01   4.000000E-01   4.000000E-01   4.000000E-01   4.000000E-01   4.000000E-01   4.000000E-01   4.000000E-01   4.000000E-01   4.000000E-01   4.000000E-01   4.000000E-01   4.000000E-01   4.000000E-01   4.000000E-01   4.000000E-01   4.000000E-01   4.000000E-01   4.000000E-01   4.000000E-01   4.000000E-01   4.000000E-01   4.000000E-01   4.000000E-01   4.000000E-01   4.000000E-01   4.000000E-01   4.000000E-01   4.000000E-01   4.000000E-01   4.000000E-01   4.000000E-01   4.000000E-01   4.000000E-01   4.000000E-01   4.000000E-01   4.000000E-01   4.000000E-01   4.000000E-01   4.000000E-01   4.000000E-01   4.000000E-01   4.000000E-01   4.000000E-01   4.000000E-01   4.000000E-01   4.000000E-01   4.000000E-01   4.000000E-01   4.000000E-01   4.000000E-01   4.000000E-01   4.000000E-01   4.000000E-01   4.000000E-01   4.000000E-01   4.000000E-01   4.000000E-01   4.000000E-01   4.000000E-01   4.000000E-01   4.000000E-01   4.000000E-01   4.000000E-01   4.000000E-01   4.000000E-01   4.000000E-01   4.000000E-01   4.000000E-01   4.000000E-01   4.000000E-01   4.000000E-01   4.000000E-01   4.000000E-01   4.000000E-01   4.000000E-01   4.000000E-01   4.000000E-01   4.000000E-01   4.000000E-01   4.000000E-01   4.000000E-01   4.000000E-01   4.000000E-01   4.000000E-01   4.000000E-01   4.000000E-01   4.000000E-01   4.000000E-01   4.000000E-01   4.000000E-01   4.000000E-01   4.000000E-01   4.000000E-01   4.000000E-01   4.000000E-01   4.000000E-01   4.000000E-01   4.000000E-01   4.000000E-01   4.000000E-01   4.000000E-01   4.000000E-01   4.000000E-01   4.000000E-01   4.000000E-01   4.000000E-01   4.000000E-01   4.000000E-01   4.000000E-01   4.000000E-01   4.000000E-01   4.000000E-01   4.000000E-01   4.000000E-01   4.000000E-01   4.000000E-01   4.000000E-01   4.000000E-01   4.000000E-01   4.000000E-01   4.000000E-01   4.000000E-01   4.000000E-01   4.000000E-01   4.000000E-01   4.000000E-01   4.000000E-01   4.000000E-01   4.000000E-01   4.000000E-01   4.000000E-01   4.000000E-01   4.000000E-01   4.000000E-01   4.000000E-01   4.000000E-01   4.000000E-01   4.000000E-01   4.000000E-01   4.000000E-01   4.000000E-01   4.000000E-01   4.000000E-01   4.000000E-01   4.000000E-01   4.000000E-01   4.000000E-01   4.000000E-01   4.000000E-01   4.000000E-01   4.000000E-01   4.000000E-01   4.000000E-01   4.000000E-01   4.000000E-01   4.000000E-01   4.000000E-01   4.000000E-01   4.000000E-01   4.000000E-01   4.000000E-01   4.000000E-01   4.000000E-01   4.000000E-01   4.000000E-01   4.000000E-01   4.000000E-01   4.000000E-01   4.000000E-01   4.000000E-01   4.000000E-01   4.000000E-01   4.000000E-01   4.000000E-01   4.000000E-01   4.000000E-01   4.000000E-01   4.000000E-01   4.000000E-01   4.000000E-01   4.000000E-01   4.000000E-01   4.000000E-01   4.000000E-01   4.000000E-01   4.000000E-01   4.000000E-01   4.000000E-01   4.000000E-01   4.000000E-01   4.000000E-01   4.000000E-01   4.000000E-01   4.000000E-01   4.000000E-01   4.000000E-01   4.000000E-01   4.000000E-01   4.000000E-01   4.000000E-01   4.000000E-01   4.000000E-01   4.000000E-01   4.000000E-01   4.000000E-01   4.000000E-01   4.000000E-01   4.000000E-01   4.000000E-01   4.000000E-01   4.000000E-01   4.000000E-01   4.000000E-01   4.000000E-01   4.000000E-01   4.000000E-01   4.000000E-01   4.000000E-01   4.000000E-01   4.000000E-01   4.000000E-01   4.000000E-01   4.000000E-01   4.000000E-01   4.000000E-01   4.000000E-01   4.000000E-01   4.000000E-01   4.000000E-01   4.000000E-01   4.000000E-01   4.000000E-01   4.000000E-01   4.000000E-01   4.000000E-01   4.000000E-01   4.000000E-01   4.000000E-01   4.000000E-01   4.000000E-01   4.000000E-01   4.000000E-01   4.000000E-01   4.000000E-01   4.000000E-01   4.000000E-01   4.000000E-01   4.000000E-01   4.000000E-01   4.000000E-01   4.000000E-01   4.000000E-01   4.000000E-01   4.000000E-01   4.000000E-01   4.000000E-01   4.000000E-01   4.000000E-01   4.000000E-01   4.000000E-01   4.000000E-01   4.000000E-01   4.000000E-01   4.000000E-01   4.000000E-01   4.000000E-01   4.000000E-01   4.000000E-01   4.000000E-01   4.000000E-01   4.000000E-01   4.000000E-01   4.000000E-01   4.000000E-01   4.000000E-01   4.000000E-01   4.000000E-01   4.000000E-01   4.000000E-01   4.000000E-01   4.000000E-01   4.000000E-01   4.000000E-01   4.000000E-01   4.000000E-01   4.000000E-01   4.000000E-01   4.000000E-01   4.000000E-01   4.000000E-01   4.000000E-01   4.000000E-01   4.000000E-01   4.000000E-01   4.000000E-01   4.000000E-01   4.000000E-01   4.000000E-01   4.000000E-01   4.000000E-01   4.000000E-01   4.000000E-01   4.000000E-01   4.000000E-01   4.000000E-01   4.000000E-01   4.000000E-01   4.000000E-01   4.000000E-01   4.000000E-01   4.000000E-01   4.000000E-01   4.000000E-01   4.000000E-01   4.000000E-01   4.000000E-01   4.000000E-01   4.000000E-01   4.000000E-01   4.000000E-01   4.000000E-01   4.000000E-01   4.000000E-01   4.000000E-01   4.000000E-01   4.000000E-01   4.000000E-01   4.000000E-01   4.000000E-01   4.000000E-01   4.000000E-01   4.000000E-01   4.000000E-01   4.000000E-01   4.000000E-01   4.000000E-01   4.000000E-01   4.000000E-01   4.000000E-01   4.000000E-01   4.000000E-01   4.000000E-01   4.000000E-01   4.000000E-01   4.000000E-01   4.000000E-01   4.000000E-01   4.000000E-01   4.000000E-01   4.000000E-01   4.000000E-01   4.000000E-01   4.000000E-01   4.000000E-01   4.000000E-01   4.000000E-01   4.000000E-01   4.000000E-01   4.000000E-01   4.000000E-01   4.000000E-01   4.000000E-01   4.000000E-01   4.000000E-01   4.000000E-01   4.000000E-01   4.000000E-01   4.000000E-01   4.000000E-01   4.000000E-01   4.000000E-01   4.000000E-01   4.000000E-01   4.000000E-01   4.000000E-01   4.000000E-01   4.000000E-01   4.000000E-01   4.000000E-01   4.000000E-01   4.000000E-01   4.000000E-01   4.000000E-01   4.000000E-01   4.000000E-01   4.000000E-01   4.000000E-01   4.000000E-01   4.000000E-01   4.000000E-01   4.000000E-01   4.000000E-01   4.000000E-01   4.000000E-01   4.000000E-01   4.000000E-01   4.000000E-01   4.000000E-01   4.000000E-01   4.000000E-01   4.000000E-01   4.000000E-01   4.000000E-01   4.000000E-01   4.000000E-01   4.000000E-01   4.000000E-01   4.000000E-01   4.000000E-01   4.000000E-01   4.000000E-01   4.000000E-01   4.000000E-01   4.000000E-01   4.000000E-01   4.000000E-01   4.000000E-01   4.000000E-01   4.000000E-01   4.000000E-01   4.000000E-01   4.000000E-01   4.000000E-01   4.000000E-01   4.000000E-01   4.000000E-01   4.000000E-01   4.000000E-01   4.000000E-01   4.000000E-01   4.000000E-01   4.000000E-01   4.000000E-01   4.000000E-01   4.000000E-01   4.000000E-01   4.000000E-01   4.000000E-01   4.000000E-01   4.000000E-01   4.000000E-01   4.000000E-01   4.000000E-01   4.000000E-01   4.000000E-01   4.000000E-01   4.000000E-01   4.000000E-01   4.000000E-01   4.000000E-01   4.000000E-01   4.000000E-01   4.000000E-01   4.000000E-01   4.000000E-01   4.000000E-01   4.000000E-01   4.000000E-01   4.000000E-01   4.000000E-01   4.000000E-01   4.000000E-01   4.000000E-01   4.000000E-01   4.000000E-01   4.000000E-01   4.000000E-01   4.000000E-01   4.000000E-01   4.000000E-01   4.000000E-01   4.000000E-01   4.000000E-01   4.000000E-01   4.000000E-01   4.000000E-01   4.000000E-01   4.000000E-01   4.000000E-01   4.000000E-01   4.000000E-01   4.000000E-01   4.000000E-01   4.000000E-01   4.000000E-01   4.000000E-01   4.000000E-01   4.000000E-01   4.000000E-01   4.000000E-01   4.000000E-01   4.000000E-01   4.000000E-01   4.000000E-01   4.000000E-01   4.000000E-01   4.000000E-01   4.000000E-01   4.000000E-01   4.000000E-01   4.000000E-01   4.000000E-01   4.000000E-01   4.000000E-01   4.000000E-01   4.000000E-01   4.000000E-01   4.000000E-01   4.000000E-01   4.000000E-01   4.000000E-01   4.000000E-01   4.000000E-01   4.000000E-01   4.000000E-01   4.000000E-01   4.000000E-01   4.000000E-01   4.000000E-01   4.000000E-01   4.000000E-01   4.000000E-01   4.000000E-01   4.000000E-01   4.000000E-01   4.000000E-01   4.000000E-01   4.000000E-01   4.000000E-01   4.000000E-01   4.000000E-01   4.000000E-01   4.000000E-01   4.000000E-01   4.000000E-01   4.000000E-01   4.000000E-01   4.000000E-01   4.000000E-01   4.000000E-01   4.000000E-01   4.000000E-01   4.000000E-01   4.000000E-01   4.000000E-01   4.000000E-01   4.000000E-01   4.000000E-01   4.000000E-01   4.000000E-01   4.000000E-01   4.000000E-01   4.000000E-01   4.000000E-01   4.000000E-01   4.000000E-01   4.000000E-01   4.000000E-01   4.000000E-01   4.000000E-01   4.000000E-01   4.000000E-01   4.000000E-01   4.000000E-01   4.000000E-01   4.000000E-01   4.000000E-01   4.000000E-01   4.000000E-01   4.000000E-01   4.000000E-01   4.000000E-01   4.000000E-01   4.000000E-01   4.000000E-01   4.000000E-01   4.000000E-01   4.000000E-01   4.000000E-01   4.000000E-01   4.000000E-01   4.000000E-01   4.000000E-01   4.000000E-01   4.000000E-01   4.000000E-01   4.000000E-01   4.000000E-01   4.000000E-01   4.000000E-01   4.000000E-01   4.000000E-01   4.000000E-01   4.000000E-01   4.000000E-01   4.000000E-01   4.000000E-01   4.000000E-01   4.000000E-01   4.000000E-01   4.000000E-01   4.000000E-01   4.000000E-01   4.000000E-01   4.000000E-01   4.000000E-01   4.000000E-01   4.000000E-01   4.000000E-01   4.000000E-01   4.000000E-01   4.000000E-01   4.000000E-01   4.000000E-01   4.000000E-01   4.000000E-01   4.000000E-01   4.000000E-01   4.000000E-01   4.000000E-01   4.000000E-01   4.000000E-01   4.000000E-01   4.000000E-01   4.000000E-01   4.000000E-01   4.000000E-01   4.000000E-01   4.000000E-01   4.000000E-01   4.000000E-01   4.000000E-01   4.000000E-01   4.000000E-01   4.000000E-01   4.000000E-01   4.000000E-01   4.000000E-01   4.000000E-01   4.000000E-01   4.000000E-01   4.000000E-01   4.000000E-01   4.000000E-01   4.000000E-01   4.000000E-01   4.000000E-01   4.000000E-01   4.000000E-01   4.000000E-01   4.000000E-01   4.000000E-01   4.000000E-01   4.000000E-01   4.000000E-01   4.000000E-01   4.000000E-01   4.000000E-01   4.000000E-01   4.000000E-01   4.000000E-01   4.000000E-01   4.000000E-01   4.000000E-01   4.000000E-01   4.000000E-01   4.000000E-01   4.000000E-01   4.000000E-01   4.000000E-01   4.000000E-01   4.000000E-01   4.000000E-01   4.000000E-01   4.000000E-01   4.000000E-01   4.000000E-01   4.000000E-01   4.000000E-01   4.000000E-01   4.000000E-01   4.000000E-01   4.000000E-01   4.000000E-01   4.000000E-01   4.000000E-01   4.000000E-01   4.000000E-01   4.000000E-01   4.000000E-01   4.000000E-01   4.000000E-01   4.000000E-01   4.000000E-01   4.000000E-01   4.000000E-01   4.000000E-01   4.000000E-01   4.000000E-01   4.000000E-01   4.000000E-01   4.000000E-01   4.000000E-01   4.000000E-01   4.000000E-01   4.000000E-01   4.000000E-01   4.000000E-01   4.000000E-01   4.000000E-01   4.000000E-01   4.000000E-01   4.000000E-01   4.000000E-01   4.000000E-01   4.000000E-01   4.000000E-01   4.000000E-01   4.000000E-01   4.000000E-01   4.000000E-01   4.000000E-01   4.000000E-01   4.000000E-01   4.000000E-01   4.000000E-01   4.000000E-01   4.000000E-01   4.000000E-01   4.000000E-01   4.000000E-01   4.000000E-01   4.000000E-01   4.000000E-01   4.000000E-01   4.000000E-01   4.000000E-01   4.000000E-01   4.000000E-01   4.000000E-01   4.000000E-01   4.000000E-01   4.000000E-01   4.000000E-01   4.000000E-01   4.000000E-01   4.000000E-01   4.000000E-01   4.000000E-01   4.000000E-01   4.000000E-01   4.000000E-01   4.000000E-01   4.000000E-01   4.000000E-01   4.000000E-01   4.000000E-01   4.000000E-01   4.000000E-01   4.000000E-01   4.000000E-01   4.000000E-01   4.000000E-01   4.000000E-01   4.000000E-01   4.000000E-01   4.000000E-01   4.000000E-01   4.000000E-01   4.000000E-01   4.000000E-01   4.000000E-01   4.000000E-01   4.000000E-01   4.000000E-01   4.000000E-01   4.000000E-01   4.000000E-01   4.000000E-01   4.000000E-01   4.000000E-01   4.000000E-01   4.000000E-01   4.000000E-01   4.000000E-01   4.000000E-01   4.000000E-01   4.000000E-01   4.000000E-01   4.000000E-01   4.000000E-01   4.000000E-01   4.000000E-01   4.000000E-01   4.000000E-01   4.000000E-01   4.000000E-01   4.000000E-01   4.000000E-01   4.000000E-01   4.000000E-01   4.000000E-01   4.000000E-01   4.000000E-01   4.000000E-01   4.000000E-01   4.000000E-01   4.000000E-01   4.000000E-01   4.000000E-01   4.000000E-01   4.000000E-01   4.000000E-01   4.000000E-01   4.000000E-01   4.000000E-01   4.000000E-01   4.000000E-01   4.000000E-01   4.000000E-01   4.000000E-01   4.000000E-01   4.000000E-01   4.000000E-01   4.000000E-01   4.000000E-01   4.000000E-01   4.000000E-01   4.000000E-01   4.000000E-01   4.000000E-01   4.000000E-01   4.000000E-01   4.000000E-01   4.000000E-01   4.000000E-01   4.000000E-01   4.000000E-01   4.000000E-01   4.000000E-01   4.000000E-01   4.000000E-01   4.000000E-01   4.000000E-01   4.000000E-01   