<?xml version="1.0"?>
<!-- Time =  3.4006776260279037E+00s -->
<VTKFile type="PolyData" version="0.1" byte_order="LittleEndian">
<PolyData>
<Piece NumberOfPoints="0000002400" NumberOfVerts="0" NumberOfLines="0" NumberOfStrips="0" NumberOfPolys="0">
<Points>
<DataArray type="Float32" Name="Position" NumberOfComponents="3" format="ascii">
  9.785036E+00   1.678849E+01   2.774278E+00   9.849196E+00   1.161700E+00   1.933650E+00   4.300166E+00   1.590800E+00   4.397831E+00   2.586715E+00   2.080387E-01   2.589419E+00   6.839217E+00   3.100250E-01   3.747714E+00   6.532819E+00   8.070437E-01   4.647458E+00   1.209271E+01   2.949233E-01   3.304990E+00   9.577079E+00   2.429613E+01   3.431529E+00   3.225659E+00   3.517013E-01   2.447116E+00   6.446697E+00   2.074931E-01   4.276417E+00   1.419142E+01   1.077758E+00   4.823902E-01   4.263820E+00   7.116095E+00   3.536253E+00   2.321924E+00   8.186584E-01   2.206461E+00   5.275073E+00   4.226104E+00   1.987593E+00   8.109463E-01   9.025115E-01   3.765369E+00   9.749825E+00   1.309734E+01   1.736261E+00   3.358367E+00   1.990598E-01   4.552598E+00   9.102347E+00   1.443284E+01   2.887501E+00   7.004810E+00   8.676109E-01   4.133440E+00   1.084403E+01   3.171518E-01   1.772423E+00   6.963949E+00   1.561112E+00   4.041762E+00   5.691344E+00   9.229925E-01   3.497497E+00   2.863250E+00   8.943302E-01   1.738915E+00   2.962574E+00   2.267649E-01   4.466857E+00   7.777256E+00   6.139635E+00   3.102424E+00   7.248679E+00   5.622109E+00   3.826445E+00   1.887451E+00   1.300931E+01   4.056158E+00   2.421875E+00   6.088322E-01   4.861105E+00   6.861116E+00   1.312789E+00   4.354362E+00   8.322807E+00   2.739895E+00   2.078806E+00   4.376099E+00   8.166357E-01   2.607705E+00   1.295339E+01   1.624650E+01   2.150480E+00   1.394262E+01   4.731198E-01   2.981054E+00   1.190799E+01   7.646970E-01   1.477570E+00   1.729292E+00   5.723413E-01   3.827760E+00   5.657163E+00   6.276110E+00   3.694771E+00   1.285666E+00   8.853436E-01   1.810758E+00   1.102908E+01   2.556137E-01   1.107064E+00   6.797255E+00   3.498992E+00   3.860825E+00   2.297600E+00   2.281710E+00   1.364763E+00   4.376068E+00   4.545421E-01   5.146441E-01   1.050138E+01   9.733485E+00   7.404836E-01   6.020784E+00   1.839415E+01   1.192299E+00   4.576833E+00   1.997980E-01   2.529862E+00   2.133938E+00   5.988954E-01   2.905575E+00   5.123375E+00   2.045637E+01   1.014244E+00   1.021407E+01   1.210352E+01   4.759748E+00   2.954070E+00   8.611562E-01   2.996905E+00   2.539057E+00   7.568251E-01   4.171427E+00   4.890886E+00   1.154561E+00   3.508628E+00   4.860864E+00   4.188417E-01   1.381141E+00   4.778558E+00   1.888576E+01   3.401733E+00   7.187728E+00   1.356247E+01   4.642865E+00   7.913673E+00   1.854990E+00   1.561984E+00   6.511516E+00   3.800674E-01   2.618692E+00   9.383897E+00   5.548147E+00   2.131661E-01   1.060909E+01   6.261304E+00   7.990760E-01   1.120463E+01   4.556479E-01   5.193536E-01   1.073989E+01   3.794525E-01   3.430956E+00   7.215779E+00   2.094573E+00   3.701586E+00   1.274679E+01   8.902238E+00   4.230476E+00   7.626193E+00   7.378067E+00   1.251779E+00   5.213985E+00   5.486496E-01   1.158361E+00   7.900052E+00   2.991347E+00   4.814778E+00   4.330117E+00   1.996490E-01   1.983890E-01   2.228845E-01   2.088410E-01   4.765386E+00   1.217447E+01   1.435510E+00   2.817265E-01   1.193831E+01   1.055010E+01   4.130041E+00   9.569431E+00   5.686114E-01   3.842049E-01   6.406951E+00   8.146639E-01   4.249044E+00   5.621054E+00   6.264938E-01   3.754840E+00   2.231149E+00   2.975553E-01   4.725194E-01   2.444896E+00   8.617044E-01   3.436410E+00   1.320508E+01   3.236262E-01   3.897247E+00   9.930193E+00   5.913573E-01   4.839411E+00   1.083246E+01   1.411637E+01   1.172191E+00   1.340669E+01   3.437644E+00   3.817043E-01   3.639589E+00   2.122749E-01   5.246094E-01   3.308081E+00   1.025474E+00   3.950620E+00   6.172300E+00   5.542494E+00   4.366374E+00   1.341482E+00   7.085871E-01   6.612315E-01   1.131879E+00   1.598091E+01   1.030843E+00   2.511657E+00   6.053457E-01   7.628810E-01   7.390543E+00   2.018086E+00   4.686891E+00   3.082349E+00   1.355206E+00   3.302492E+00   9.843385E+00   8.617785E+00   4.138440E+00   5.885934E+00   2.004259E-01   3.999479E+00   3.098691E+00   2.014994E-01   4.086982E+00   5.504302E+00   2.029529E-01   3.002595E+00   4.014869E+00   5.162879E-01   2.892292E+00   4.729072E+00   9.678513E-01   2.017770E+00   2.745334E-01   2.071671E-01   2.977919E-01   5.431680E+00   8.617793E-01   4.073824E+00   3.838775E+00   8.325033E-01   4.431730E+00   1.000577E+01   1.174298E+00   3.511087E+00   5.703472E+00   4.524029E-01   8.177789E-01   2.037377E+00   5.506308E-01   1.404007E+00   1.100540E+01   1.702514E+00   1.587052E+00   4.688056E+00   5.793441E-01   2.403399E+00   6.835265E+00   1.756273E+01   3.611614E+00   5.302246E+00   7.991359E-01   2.823890E+00   2.193080E-01   5.697481E-01   4.553773E+00   7.424357E+00   1.043318E+00   1.635639E+00   4.764658E+00   2.135677E-01   3.624248E+00   6.940960E+00   5.974641E+00   5.112069E-01   3.158493E+00   2.029406E-01   6.500946E-01   4.535107E+00   5.242530E-01   3.522464E+00   6.614072E+00   1.209658E+01   3.447281E-01   5.954577E+00   2.323394E-01   5.970026E-01   9.451115E+00   7.047912E+00   1.044630E+00   5.451495E+00   1.683663E+01   4.952439E+00   2.903596E+00   5.333887E-01   5.434265E-01   1.357961E+01   8.336257E-01   1.257876E+00   3.612389E+00   6.270834E-01   1.914128E+00   5.080801E+00   5.767193E-01   1.673294E+00   3.579946E+00   1.978617E-01   1.196068E+00   3.729048E+00   5.789139E-01   3.476989E+00   2.330696E+00   2.032518E-01   8.484984E-01   8.589406E+00   1.099134E+00   2.080916E+00   8.366016E+00   8.440242E-01   4.020395E-01   9.557421E+00   7.464468E-01   2.181038E+00   7.831647E+00   7.844731E+00   2.718708E+00   5.739350E+00   5.468550E-01   4.137416E+00   2.307866E+00   2.386937E-01   2.896471E+00   7.990337E+00   6.775343E-01   2.502049E+00   5.111315E+00   2.334684E+01   5.488624E-01   5.584801E+00   2.242417E-01   3.695607E+00   1.404711E+01   1.862415E+00   4.939581E+00   7.252560E-01   2.100791E-01   3.803771E+00   9.821463E+00   1.748229E+01   2.374892E+00   8.895000E+00   8.825226E+00   2.109017E+00   5.937281E+00   4.038396E+00   4.191137E+00   2.078542E+00   5.036815E-01   2.168799E+00   1.175579E+01   9.260367E-01   3.636566E-01   5.636827E+00   6.120139E-01   1.182511E+00   1.015905E+01   1.069319E+00   1.444266E+00   6.781814E+00   3.276829E-01   1.165416E+00   6.502092E+00   1.426056E+00   4.542254E+00   7.492490E+00   7.265948E+00   4.023836E+00   1.341412E+01   2.110327E+00   1.711460E+00   3.315193E+00   2.016280E-01   1.946797E+00   7.530301E+00   2.637880E+00   2.568783E+00   5.576267E+00   6.709085E-01   3.182431E+00   1.474162E+01   1.930154E-01   4.762442E+00   8.843375E+00   1.194525E+01   1.466432E+00   1.477937E+01   2.763181E-01   3.190756E+00   2.188809E+00   5.275015E-01   3.971312E+00   1.706688E+00   2.356872E-01   4.636631E+00   7.439415E+00   2.069098E+01   4.342207E+00   3.138823E+00   1.511592E+01   6.162980E-01   1.403455E+01   7.343740E+00   1.576191E+00   3.858430E+00   1.626976E+01   1.467256E+00   8.974351E+00   5.237135E+00   3.883622E-01   5.512814E+00   7.045966E+00   2.079553E+00   5.996737E+00   1.313343E+00   6.328343E-01   6.668968E+00   6.067127E+00   1.747665E+00   1.551751E+00   1.215173E+00   4.611809E+00   6.144997E+00   4.642666E-01   4.178327E+00   6.470215E+00   2.088671E+00   2.409114E+00   3.969713E+00   2.391049E+01   1.976368E+00   1.262890E+01   1.371020E+00   2.517071E+00   5.149546E+00   4.634841E-01   3.003897E+00   9.210866E+00   2.228324E+00   1.047839E+00   1.372774E+01   1.535663E+00   4.249924E+00   6.794139E+00   4.927464E-01   4.495894E+00   1.177046E+00   2.046297E-01   2.031478E-01   5.743619E+00   2.031335E-01   2.403497E-01   2.401892E+00   1.516522E+01   8.940214E-01   7.613286E-01   2.113886E-01   2.055157E-01   1.031669E+01   8.054451E-01   2.010301E+00   1.401331E+01   1.874124E+01   3.935904E+00   7.867357E+00   8.269646E+00   2.886175E+00   8.802932E+00   2.745861E-01   9.522309E-01   6.594801E+00   2.487628E+00   4.646589E+00   6.966385E+00   3.957902E+00   4.438884E+00   2.591189E+00   2.034979E-01   1.908296E+00   6.083238E+00   1.754766E+00   4.847201E+00   8.220160E+00   2.495409E+00   4.466864E+00   2.713483E+00   2.040188E-01   1.014212E+00   5.863497E+00   9.569688E-01   2.298720E+00   2.774186E+00   2.002977E-01   3.195826E+00   4.135832E+00   9.066416E+00   3.879177E+00   7.172519E+00   2.038084E+01   3.278760E+00   7.431332E+00   1.793847E+01   3.509517E+00   1.216636E+00   1.165812E+01   3.040532E+00   2.321333E+00   1.256982E+00   8.110237E-01   3.868160E+00   1.992914E-01   1.991404E-01   6.242473E+00   6.324168E-01   3.193398E+00   6.835015E+00   1.027599E+00   2.014612E+00   6.819601E+00   6.693934E+00   4.396476E+00   1.090759E+00   1.024571E+01   1.323696E+00   1.246161E+01   1.561159E+01   3.103644E+00   2.308976E-01   2.083691E-01   4.341022E+00   1.072984E+01   1.622865E+01   1.444622E+00   4.879869E+00   5.586694E+00   1.386481E+00   3.933779E+00   9.374125E+00   8.416044E-01   1.199673E+01   7.370236E+00   2.901636E+00   2.970343E+00   5.069268E-01   9.379101E-01   6.370810E+00   9.199284E+00   3.158388E+00   8.680427E+00   1.429518E+01   4.681009E+00   5.281938E+00   2.254510E+01   3.063589E+00   1.643772E+00   2.175189E-01   2.548167E+00   8.847496E+00   6.706902E+00   4.675483E+00   4.802024E+00   3.320232E+00   2.287021E+00   1.122806E+01   9.033873E+00   4.591491E+00   8.124269E+00   1.493293E+01   4.303709E+00   1.138904E+01   7.469929E-01   3.179860E+00   4.399577E+00   1.155825E+00   4.372941E+00   2.949169E+00   2.036741E+01   4.082579E+00   6.840227E+00   1.566513E+00   1.512218E+00   1.212247E+01   6.365526E-01   1.922936E+00   5.557364E+00   1.096259E+01   2.137947E+00   9.458273E+00   4.980142E+00   4.329358E+00   1.047137E+01   2.653223E+00   3.005633E+00   8.529592E+00   1.488555E+00  
[...]
<PointData Scalars="Diameter" Vectors="Velocity">
<DataArray type="Float32" Name="Diameter" format="ascii">
  4.000000E-01   4.000000E-01   4.000000E-01   4.000000E-01   4.000000E-01   4.000000E-01   4.000000E-01   4.000000E-01   4.000000E-01   4.000000E-01   4.000000E-01   4.000000E-01   4.000000E-01   4.000000E-01   4.000000E-01   4.000000E-01   4.000000E-01   4.000000E-01   4.000000E-01   4.000000E-01   4.000000E-01   4.000000E-01   4.000000E-01   4.000000E-01   4.000000E-01   4.000000E-01   4.000000E-01   4.000000E-01   4.000000E-01   4.000000E-01   4.000000E-01   4.000000E-01   4.000000E-01   4.000000E-01   4.000000E-01   4.000000E-01   4.000000E-01   4.000000E-01   4.000000E-01   4.000000E-01   4.000000E-01   4.000000E-01   4.000000E-01   4.000000E-01   4.000000E-01   4.000000E-01   4.000000E-01   4.000000E-01   4.000000E-01   4.000000E-01   4.000000E-01   4.000000E-01   4.000000E-01   4.000000E-01   4.000000E-01   4.000000E-01   4.000000E-01   4.000000E-01   4.000000E-01   4.000000E-01   4.000000E-01   4.000000E-01   4.000000E-01   4.000000E-01   4.000000E-01   4.000000E-01   4.000000E-01   4.000000E-01   4.000000E-01   4.000000E-01   4.000000E-01   4.000000E-01   4.000000E-01   4.000000E-01   4.000000E-01   4.000000E-01   4.000000E-01   4.000000E-01   4.000000E-01   4.000000E-01   4.000000E-01   4.000000E-01   4.000000E-01   4.000000E-01   4.000000E-01   4.000000E-01   4.000000E-01   4.000000E-01   4.000000E-01   4.000000E-01   4.000000E-01   4.000000E-01   4.000000E-01   4.000000E-01   4.000000E-01   4.000000E-01   4.000000E-01   4.000000E-01   4.000000E-01   4.000000E-01   4.000000E-01   4.000000E-01   4.000000E-01   4.000000E-01   4.000000E-01   4.000000E-01   4.000000E-01   4.000000E-01   4.000000E-01   4.000000E-01   4.000000E-01   4.000000E-01   4.000000E-01   4.000000E-01   4.000000E-01   4.000000E-01   4.000000E-01   4.000000E-01   4.000000E-01   4.000000E-01   4.000000E-01   4.000000E-01   4.000000E-01   4.000000E-01   4.000000E-01   4.000000E-01   4.000000E-01   4.000000E-01   4.000000E-01   4.000000E-01   4.000000E-01   4.000000E-01   4.000000E-01   4.000000E-01   4.000000E-01   4.000000E-01   4.000000E-01   4.000000E-01   4.000000E-01   4.000000E-01   4.000000E-01   4.000000E-01   4.000000E-01   4.000000E-01   4.000000E-01   4.000000E-01   4.000000E-01   4.000000E-01   4.000000E-01   4.000000E-01   4.000000E-01   4.000000E-01   4.000000E-01   4.000000E-01   4.000000E-01   4.000000E-01   4.000000E-01   4.000000E-01   4.000000E-01   4.000000E-01   4.000000E-01   4.000000E-01   4.000000E-01   4.000000E-01   4.000000E-01   4.000000E-01   4.000000E-01   4.000000E-01   4.000000E-01   4.000000E-01   4.000000E-01   4.000000E-01   4.000000E-01   4.000000E-01   4.000000E-01   4.000000E-01   4.000000E-01   4.000000E-01   4.000000E-01   4.000000E-01   4.000000E-01   4.000000E-01   4.000000E-01   4.000000E-01   4.000000E-01   4.000000E-01   4.000000E-01   4.000000E-01   4.000000E-01   4.000000E-01   4.000000E-01   4.000000E-01   4.000000E-01   4.000000E-01   4.000000E-01   4.000000E-01   4.000000E-01   4.000000E-01   4.000000E-01   4.000000E-01   4.000000E-01   4.000000E-01   4.000000E-01   4.000000E-01   4.000000E-01   4.000000E-01   4.000000E-01   4.000000E-01   4.000000E-01   4.000000E-01   4.000000E-01   4.000000E-01   4.000000E-01   4.000000E-01   4.000000E-01   4.000000E-01   4.000000E-01   4.000000E-01   4.000000E-01   4.000000E-01   4.000000E-01   4.000000E-01   4.000000E-01   4.000000E-01   4.000000E-01   4.000000E-01   4.000000E-01   4.000000E-01   4.000000E-01   4.000000E-01   4.000000E-01   4.000000E-01   4.000000E-01   4.000000E-01   4.000000E-01   4.000000E-01   4.000000E-01   4.000000E-01   4.000000E-01   4.000000E-01   4.000000E-01   4.000000E-01   4.000000E-01   4.000000E-01   4.000000E-01   4.000000E-01   4.000000E-01   4.000000E-01   4.000000E-01   4.000000E-01   4.000000E-01   4.000000E-01   4.000000E-01   4.000000E-01   4.000000E-01   4.000000E-01   4.000000E-01   4.000000E-01   4.000000E-01   4.000000E-01   4.000000E-01   4.000000E-01   4.000000E-01   4.000000E-01   4.000000E-01   4.000000E-01   4.000000E-01   4.000000E-01   4.000000E-01   4.000000E-01   4.000000E-01   4.000000E-01   4.000000E-01   4.000000E-01   4.000000E-01   4.000000E-01   4.000000E-01   4.000000E-01   4.000000E-01   4.000000E-01   4.000000E-01   4.000000E-01   4.000000E-01   4.000000E-01   4.000000E-01   4.000000E-01   4.000000E-01   4.000000E-01   4.000000E-01   4.000000E-01   4.000000E-01   4.000000E-01   4.000000E-01   4.000000E-01   4.000000E-01   4.000000E-01   4.000000E-01   4.000000E-01   4.000000E-01   4.000000E-01   4.000000E-01   4.000000E-01   4.000000E-01   4.000000E-01   4.000000E-01   4.000000E-01   4.000000E-01   4.000000E-01   4.000000E-01   4.000000E-01   4.000000E-01   4.000000E-01   4.000000E-01   4.000000E-01   4.000000E-01   4.000000E-01   4.000000E-01   4.000000E-01   4.000000E-01   4.000000E-01   4.000000E-01   4.000000E-01   4.000000E-01   4.000000E-01   4.000000E-01   4.000000E-01   4.000000E-01   4.000000E-01   4.000000E-01   4.000000E-01   4.000000E-01   4.000000E-01   4.000000E-01   4.000000E-01   4.000000E-01   4.000000E-01   4.000000E-01   4.000000E-01   4.000000E-01   4.000000E-01   4.000000E-01   4.000000E-01   4.000000E-01   4.000000E-01   4.000000E-01   4.000000E-01   4.000000E-01   4.000000E-01   4.000000E-01   4.000000E-01   4.000000E-01   4.000000E-01   4.000000E-01   4.000000E-01   4.000000E-01   4.000000E-01   4.000000E-01   4.000000E-01   4.000000E-01   4.000000E-01   4.000000E-01   4.000000E-01   4.000000E-01   4.000000E-01   4.000000E-01   4.000000E-01   4.000000E-01   4.000000E-01   4.000000E-01   4.000000E-01   4.000000E-01   4.000000E-01   4.000000E-01   4.000000E-01   4.000000E-01   4.000000E-01   4.000000E-01   4.000000E-01   4.000000E-01   4.000000E-01   4.000000E-01   4.000000E-01   4.000000E-01   4.000000E-01   4.000000E-01   4.000000E-01   4.000000E-01   4.000000E-01   4.000000E-01   4.000000E-01   4.000000E-01   4.000000E-01   4.000000E-01   4.000000E-01   4.000000E-01   4.000000E-01   4.000000E-01   4.000000E-01   4.000000E-01   4.000000E-01   4.000000E-01   4.000000E-01   4.000000E-01   4.000000E-01   4.000000E-01   4.000000E-01   4.000000E-01   4.000000E-01   4.000000E-01   4.000000E-01   4.000000E-01   4.000000E-01   4.000000E-01   4.000000E-01   4.000000E-01   4.000000E-01   4.000000E-01   4.000000E-01   4.000000E-01   4.000000E-01   4.000000E-01   4.000000E-01   4.000000E-01   4.000000E-01   4.000000E-01   4.000000E-01   4.000000E-01   4.000000E-01   4.000000E-01   4.000000E-01   4.000000E-01   4.000000E-01   4.000000E-01   4.000000E-01   4.000000E-01   4.000000E-01   4.000000E-01   4.000000E-01   4.000000E-01   4.000000E-01   4.000000E-01   4.000000E-01   4.000000E-01   4.000000E-01   4.000000E-01   4.000000E-01   4.000000E-01   4.000000E-01   4.000000E-01   4.000000E-01   4.000000E-01   4.000000E-01   4.000000E-01   4.000000E-01   4.000000E-01   4.000000E-01   4.000000E-01   4.000000E-01   4.000000E-01   4.000000E-01   4.000000E-01   4.000000E-01   4.000000E-01   4.000000E-01   4.000000E-01   4.000000E-01   4.000000E-01   4.000000E-01   4.000000E-01   4.000000E-01   4.000000E-01   4.000000E-01   4.000000E-01   4.000000E-01   4.000000E-01   4.000000E-01   4.000000E-01   4.000000E-01   4.000000E-01   4.000000E-01   4.000000E-01   4.000000E-01   4.000000E-01   4.000000E-01   4.000000E-01   4.000000E-01   4.000000E-01   4.000000E-01   4.000000E-01   4.000000E-01   4.000000E-01   4.000000E-01   4.000000E-01   4.000000E-01   4.000000E-01   4.000000E-01   4.000000E-01   4.000000E-01   4.000000E-01   4.000000E-01   4.000000E-01   4.000000E-01   4.000000E-01   4.000000E-01   4.000000E-01   4.000000E-01   4.000000E-01   4.000000E-01   4.000000E-01   4.000000E-01   4.000000E-01   4.000000E-01   4.000000E-01   4.000000E-01   4.000000E-01   4.000000E-01   4.000000E-01   4.000000E-01   4.000000E-01   4.000000E-01   4.000000E-01   4.000000E-01   4.000000E-01   4.000000E-01   4.000000E-01   4.000000E-01   4.000000E-01   4.000000E-01   4.000000E-01   4.000000E-01   4.000000E-01   4.000000E-01   4.000000E-01   4.000000E-01   4.000000E-01   4.000000E-01   4.000000E-01   4.000000E-01   4.000000E-01   4.000000E-01   4.000000E-01   4.000000E-01   4.000000E-01   4.000000E-01   4.000000E-01   4.000000E-01   4.000000E-01   4.000000E-01   4.000000E-01   4.000000E-01   4.000000E-01   4.000000E-01   4.000000E-01   4.000000E-01   4.000000E-01   4.000000E-01   4.000000E-01   4.000000E-01   4.000000E-01   4.000000E-01   4.000000E-01   4.000000E-01   4.000000E-01   4.000000E-01   4.000000E-01   4.000000E-01   4.000000E-01   4.000000E-01   4.000000E-01   4.000000E-01   4.000000E-01   4.000000E-01   4.000000E-01   4.000000E-01   4.000000E-01   4.000000E-01   4.000000E-01   4.000000E-01   4.000000E-01   4.000000E-01   4.000000E-01   4.000000E-01   4.000000E-01   4.000000E-01   4.000000E-01   4.000000E-01   4.000000E-01   4.000000E-01   4.000000E-01   4.000000E-01   4.000000E-01   4.000000E-01   4.000000E-01   4.000000E-01   4.000000E-01   4.000000E-01   4.000000E-01   4.000000E-01   4.000000E-01   4.000000E-01   4.000000E-01   4.000000E-01   4.000000E-01   4.000000E-01   4.000000E-01   4.000000E-01   4.000000E-01   4.000000E-01   4.000000E-01   4.000000E-01   4.000000E-01   4.000000E-01   4.000000E-01   4.000000E-01   4.000000E-01   4.000000E-01   4.000000E-01   4.000000E-01   4.000000E-01   4.000000E-01   4.000000E-01   4.000000E-01   4.000000E-01   4.000000E-01   4.000000E-01   4.000000E-01   4.000000E-01   4.000000E-01   4.000000E-01   4.000000E-01   4.000000E-01   4.000000E-01   4.000000E-01   4.000000E-01   4.000000E-01   4.000000E-01   4.000000E-01   4.000000E-01   4.000000E-01   4.000000E-01   4.000000E-01   4.000000E-01   4.000000E-01   4.000000E-01   4.000000E-01   4.000000E-01   4.000000E-01   4.000000E-01   4.000000E-01   4.000000E-01   4.000000E-01   4.000000E-01   4.000000E-01   4.000000E-01   4.000000E-01   4.000000E-01   4.000000E-01   4.000000E-01   4.000000E-01   4.000000E-01   4.000000E-01   4.000000E-01   4.000000E-01   4.000000E-01   4.000000E-01   4.000000E-01   4.000000E-01   4.000000E-01   4.000000E-01   4.000000E-01   4.000000E-01   4.000000E-01   4.000000E-01   4.000000E-01   4.000000E-01   4.000000E-01   4.000000E-01   4.000000E-01   4.000000E-01   4.000000E-01   4.000000E-01   4.000000E-01   4.000000E-01   4.000000E-01   4.000000E-01   4.000000E-01   4.000000E-01   4.000000E-01   4.000000E-01   4.000000E-01   4.000000E-01   4.000000E-01   4.000000E-01   4.000000E-01   4.000000E-01   4.000000E-01   4.000000E-01   4.000000E-01   4.000000E-01   4.000000E-01   4.000000E-01   4.000000E-01   4.000000E-01   4.000000E-01   4.000000E-01   4.000000E-01   4.000000E-01   4.000000E-01   4.000000E-01   4.000000E-01   4.000000E-01   4.000000E-01   4.000000E-01   4.000000E-01   4.000000E-01   4.000000E-01   4.000000E-01   4.000000E-01   4.000000E-01   4.000000E-01   4.000000E-01   4.000000E-01   4.000000E-01   4.000000E-01   4.000000E-01   4.000000E-01   4.000000E-01   4.000000E-01   4.000000E-01   4.000000E-01   4.000000E-01   4.000000E-01   4.000000E-01   4.000000E-01   4.000000E-01   4.000000E-01   4.000000E-01   4.000000E-01   4.000000E-01   4.000000E-01   4.000000E-01   4.000000E-01   4.000000E-01   4.000000E-01   4.000000E-01   4.000000E-01   4.000000E-01   4.000000E-01   4.000000E-01   4.000000E-01   4.000000E-01   4.000000E-01   4.000000E-01   4.000000E-01   4.000000E-01   4.000000E-01   4.000000E-01   4.000000E-01   4.000000E-01   4.000000E-01   4.000000E-01   4.000000E-01   4.000000E-01   4.000000E-01   4.000000E-01   4.000000E-01   4.000000E-01   4.000000E-01   4.000000E-01   4.000000E-01   4.000000E-01   4.000000E-01   4.000000E-01   4.000000E-01   4.000000E-01   4.000000E-01   4.000000E-01   4.000000E-01   4.000000E-01   4.000000E-01   4.000000E-01   4.000000E-01   4.000000E-01   4.000000E-01   4.000000E-01   4.000000E-01   4.000000E-01   4.000000E-01   4.000000E-01   4.000000E-01   4.000000E-01   4.000000E-01   4.000000E-01   4.000000E-01   4.000000E-01   4.000000E-01   4.000000E-01   4.000000E-01   4.000000E-01   4.000000E-01   4.000000E-01   4.000000E-01   4.000000E-01   4.000000E-01   4.000000E-01   4.000000E-01   4.000000E-01   4.000000E-01   4.000000E-01   4.000000E-01   4.000000E-01   4.000000E-01   4.000000E-01   4.000000E-01   4.000000E-01   4.000000E-01   4.000000E-01   4.000000E-01   4.000000E-01   4.000000E-01   4.000000E-01   4.000000E-01   4.000000E-01   4.000000E-01   4.000000E-01   4.000000E-01   4.000000E-01   4.000000E-01   4.000000E-01   4.000000E-01   4.000000E-01   4.000000E-01   4.000000E-01   4.000000E-01   4.000000E-01   4.000000E-01   4.000000E-01   4.000000E-01   4.000000E-01   4.000000E-01   4.000000E-01   4.000000E-01   4.000000E-01   4.000000E-01   4.000000E-01   4.000000E-01   4.000000E-01   4.000000E-01   4.000000E-01   4.000000E-01   4.000000E-01   4.000000E-01   4.000000E-01   4.000000E-01   4.000000E-01   4.000000E-01   4.000000E-01   4.000000E-01   4.000000E-01   4.000000E-01   4.000000E-01   4.000000E-01   4.000000E-01   4.000000E-01   4.000000E-01   4.000000E-01   4.000000E-01   4.000000E-01   4.000000E-01   4.000000E-01   4.000000E-01   4.000000E-01   4.000000E-01   4.000000E-01   4.000000E-01   4.000000E-01   4.000000E-01   4.000000E-01   4.000000E-01   4.000000E-01   4.000000E-01   4.000000E-01   4.000000E-01   4.000000E-01   4.000000E-01   4.000000E-01   4.000000E-01   4.000000E-01   4.000000E-01   4.000000E-01   4.000000E-01   4.000000E-01   4.000000E-01   4.000000E-01   4.000000E-01   4.000000E-01   4.000000E-01   4.000000E-01   4.000000E-01   4.000000E-01   4.000000E-01   4.000000E-01   4.000000E-01   4.000000E-01   4.000000E-01   4.000000E-01   4.000000E-01   4.000000E-01   4.000000E-01   4.000000E-01   4.000000E-01   4.000000E-01   4.000000E-01   4.000000E-01   4.000000E-01   4.000000E-01   4.000000E-01   4.000000E-01   4.000000E-01   4.000000E-01   4.000000E-01   4.000000E-01   4.000000E-01   4.000000E-01   4.000000E-01   4.000000E-01   4.000000E-01   4.000000E-01   4.000000E-01   4.000000E-01   4.000000E-01   4.000000E-01   4.000000E-01   4.000000E-01   4.000000E-01   4.000000E-01   4.000000E-01   4.000000E-01   4.000000E-01   4.000000E-01   4.000000E-01   4.000000E-01   4.000000E-01   4.000000E-01   4.000000E-01   4.000000E-01   4.000000E-01   4.000000E-01   4.000000E-01   4.000000E-01   4.000000E-01   4.000000E-01   4.000000E-01   4.000000E-01   4.000000E-01   4.000000E-01   4.000000E-01   4.000000E-01   4.000000E-01   4.000000E-01   4.000000E-01   4.000000E-01   4.000000E-01   4.000000E-01   4.000000E-01   4.000000E-01   4.000000E-01   4.000000E-01   4.000000E-01   4.000000E-01   4.000000E-01   4.000000E-01   4.000000E-01   4.000000E-01   4.000000E-01   4.000000E-01   4.000000E-01   4.000000E-01   4.000000E-01   4.000000E-01   4.000000E-01   4.000000E-01   4.000000E-01   4.000000E-01   4.000000E-01   4.000000E-01   4.000000E-01   4.000000E-01   4.000000E-01   4.000000E-01   4.000000E-01   4.000000E-01   4.000000E-01   4.000000E-01   4.000000E-01   4.000000E-01   4.000000E-01   4.000000E-01   4.000000E-01   4.000000E-01   4.000000E-01   4.000000E-01   4.000000E-01   4.000000E-01   4.000000E-01   4.000000E-01   4.000000E-01   4.000000E-01   4.000000E-01   4.000000E-01   4.000000E-01   4.000000E-01   4.000000E-01   4.000000E-01   4.000000E-01   4.000000E-01   4.000000E-01   4.000000E-01   4.000000E-01   4.000000E-01   4.000000E-01   4.000000E-01   4.000000E-01   4.000000E-01   4.000000E-01   4.000000E-01   4.000000E-01   4.000000E-01   4.000000E-01   4.000000E-01   4.000000E-01   4.000000E-01   4.000000E-01   4.000000E-01   4.000000E-01   4.000000E-01   4.000000E-01   4.000000E-01   4.000000E-01   4.000000E-01   4.000000E-01   4.000000E-01   4.000000E-01   4.000000E-01   4.000000E-01   4.000000E-01   4.000000E-01   4.000000E-01   4.000000E-01   4.000000E-01   4.000000E-01   4.000000E-01   4.000000E-01   4.000000E-01   4.000000E-01   4.000000E-01   4.000000E-01   4.000000E-01   4.000000E-01   4.000000E-01   4.000000E-01   4.000000E-01   4.000000E-01   4.000000E-01   4.000000E-01   4.000000E-01   4.000000E-01   4.000000E-01   4.000000E-01   4.000000E-01   4.000000E-01   4.000000E-01   4.000000E-01   4.000000E-01   4.000000E-01   4.000000E-01   4.000000E-01   4.000000E-01   4.000000E-01   4.000000E-01   4.000000E-01   4.000000E-01   4.000000E-01   4.000000E-01   4.000000E-01   4.000000E-01   4.000000E-01   4.000000E-01   4.000000E-01   4.000000E-01   4.000000E-01   4.000000E-01   4.000000E-01   4.000000E-01   4.000000E-01   4.000000E-01   4.000000E-01   4.000000E-01   4.000000E-01   4.000000E-01   4.000000E-01   4.000000E-01   4.000000E-01   4.000000E-01   4.000000E-01   4.000000E-01   4.000000E-01   4.000000E-01   4.000000E-01   4.000000E-01   4.000000E-01   4.000000E-01   4.000000E-01   4.000000E-01   4.000000E-01   4.000000E-01   4.000000E-01   4.000000E-01   4.000000E-01   4.000000E-01   4.000000E-01   4.000000E-01   4.000000E-01   4.000000E-01   4.000000E-01   4.000000E-01   4.000000E-01   4.000000E-01   4.000000E-01   4.000000E-01   4.000000E-01   4.000000E-01   4.000000E-01   4.000000E-01   4.000000E-01   4.000000E-01   4.000000E-01   4.000000E-01   4.000000E-01   4.000000E-01   4.000000E-01   4.000000E-01   4.000000E-01   4.000000E-01   4.000000E-01   4.000000E-01   4.000000E-01   4.000000E-01   4.000000E-01   4.000000E-01   4.000000E-01   4.000000E-01   4.000000E-01   4.000000E-01   4.000000E-01   4.000000E-01   4.000000E-01   4.000000E-01   4.000000E-01   4.000000E-01   4.000000E-01   4.000000E-01   4.000000E-01   4.000000E-01   4.000000E-01   4.000000E-01   4.000000E-01   4.000000E-01   4.000000E-01   4.000000E-01   4.000000E-01   4.000000E-01   4.000000E-01   4.000000E-01   4.000000E-01   4.000000E-01   4.000000E-01   4.000000E-01   4.000000E-01   4.000000E-01   4.000000E-01   4.000000E-01   4.000000E-01   4.000000E-01   4.000000E-01   4.000000E-01   4.000000E-01   4.000000E-01   4.000000E-01   4.000000E-01   4.000000E-01   4.000000E-01   4.000000E-01   4.000000E-01   4.000000E-01   4.000000E-01   4.000000E-01   4.000000E-01   4.000000E-01   4.000000E-01   4.000000E-01   4.000000E-01   4.000000E-01   4.000000E-01   4.000000E-01   4.000000E-01   4.000000E-01   4.000000E-01   4.000000E-01   4.000000E-01   4.000000E-01   4.000000E-01   4.000000E-01   4.000000E-01   4.000000E-01   4.000000E-01   4.000000E-01   4.000000E-01   4.000000E-01   4.000000E-01   4.000000E-01   4.000000E-01   4.000000E-01   4.000000E-01   4.000000E-01   4.000000E-01   4.000000E-01   4.000000E-01   4.000000E-01   4.000000E-01   4.000000E-01   4.000000E-01   4.000000E-01   4.000000E-01   4.000000E-01   4.000000E-01   4.000000E-01   4.000000E-01   4.000000E-01   4.000000E-01   4.000000E-01   4.000000E-01   4.000000E-01   4.000000E-01   4.000000E-01   4.000000E-01   4.000000E-01   4.000000E-01   4.000000E-01   4.000000E-01   4.000000E-01   4.000000E-01   4.000000E-01   4.000000E-01   4.000000E-01   4.000000E-01   4.000000E-01   4.000000E-01   4.000000E-01   4.000000E-01   4.000000E-01   4.000000E-01   4.000000E-01   4.000000E-01   4.000000E-01   4.000000E-01   4.000000E-01   4.000000E-01   4.000000E-01   4.000000E-01   4.000000E-01   4.000000E-01   4.000000E-01   4.000000E-01   4.000000E-01   4.000000E-01   4.000000E-01   4.000000E-01   4.000000E-01   4.000000E-01   4.000000E-01   4.000000E-01   4.000000E-01   4.000000E-01   4.000000E-01   4.000000E-01   4.000000E-01   4.000000E-01   4.000000E-01   4.000000E-01   4.000000E-01   4.000000E-01   4.000000E-01   4.000000E-01   4.000000E-01   4.000000E-01   4.000000E-01   4.000000E-01   4.000000E-01   4.000000E-01   4.000000E-01   4.000000E-01   4.000000E-01   4.000000E-01   4.000000E-01   4.000000E-01   4.000000E-01   4.000000E-01   4.000000E-01   4.000000E-01   4.000000E-01   4.000000E-01   4.000000E-01   4.000000E-01   4.000000E-01   4.000000E-01   4.000000E-01   4.000000E-01   4.000000E-01   4.000000E-01   4.000000E-01   4.000000E-01   4.000000E-01   4.000000E-01   4.000000E-01   4.000000E-01   