<?xml version="1.0"?>
<!-- Time =  1.5003576260280496E+00s -->
<VTKFile type="PolyData" version="0.1" byte_order="LittleEndian">
<PolyData>
<Piece NumberOfPoints="0000002400" NumberOfVerts="0" NumberOfLines="0" NumberOfStrips="0" NumberOfPolys="0">
<Points>
<DataArray type="Float32" Name="Position" NumberOfComponents="3" format="ascii">
  9.949852E-01   2.207192E-01   2.092513E-01   6.257418E+00   1.985449E-01   5.477754E-01   5.485596E+00   1.712970E+00   1.617846E+00   1.008886E+01   1.376082E+00   4.730706E-01   2.899190E+00   5.274711E+00   2.868975E+00   8.351513E+00   1.732006E+00   3.404643E+00   4.567196E+00   2.132105E+00   3.106635E-01   7.520247E+00   1.712652E+00   9.716684E-01   8.416124E+00   9.449148E+00   4.201884E+00   1.171646E+01   1.631187E+00   2.360714E+00   7.778098E+00   5.727054E+00   3.224591E+00   7.304828E-01   6.312005E+00   6.611300E-01   1.047836E+01   7.211313E-01   3.071571E+00   9.287696E-01   1.312048E+01   3.233795E+00   4.669608E+00   2.068159E-01   1.793881E+00   9.669012E-01   9.794353E+00   4.669024E+00   1.114649E+01   1.295461E+01   2.470516E+00   1.106157E+01   7.170356E+00   2.629615E+00   6.181884E-01   4.892409E+00   1.175475E+00   9.838723E+00   9.540112E+00   2.969637E+00   9.568570E+00   5.747663E-01   1.762149E+00   3.173920E+00   2.890555E+00   3.084982E+00   1.364807E+01   7.643511E-01   3.962127E+00   1.057055E+01   2.066403E+00   4.395658E+00   8.693475E+00   7.201248E-01   1.901965E+00   4.497532E+00   1.227650E+00   3.809809E+00   1.332048E+00   1.867071E+01   1.985892E+00   7.702346E+00   4.632020E+00   2.390310E-01   9.472402E+00   2.981809E+00   4.549445E+00   6.619179E+00   4.030709E-01   7.275898E-01   9.131461E+00   7.964932E+00   3.929724E+00   8.691265E+00   6.551911E+00   1.520582E+00   5.418459E+00   4.347360E+00   1.944454E+00   1.067897E+01   5.965261E+00   3.251354E+00   7.687697E-01   2.116755E-01   1.887856E+00   5.101588E-01   2.190368E-01   1.546310E+00   7.714822E+00   2.937925E+00   3.925920E-01   3.975193E+00   2.921589E+00   1.936698E+00   8.028384E+00   1.454111E+01   3.133946E+00   5.422751E+00   8.781762E-01   3.268073E+00   1.257337E+01   2.621568E-01   4.493074E+00   3.168664E+00   2.266412E-01   1.866629E+00   6.959762E+00   6.917005E-01   9.672657E-01   1.636046E+00   4.345568E+00   3.331212E+00   1.416649E+01   1.696007E+00   4.975716E+00   6.866766E+00   2.555574E-01   4.698701E+00   9.020041E+00   1.165547E+00   1.528131E+00   2.372183E+00   8.822845E+00   4.638210E+00   4.929757E+00   1.490181E+01   4.371186E+00   8.936212E+00   4.517221E+00   3.530675E+00   8.075747E+00   6.682898E+00   1.353275E+00   1.214954E+00   2.273090E-01   1.767106E+00   6.412494E+00   2.320523E+01   3.036248E+00   6.052954E+00   1.465427E+01   8.129970E-01   1.390558E+01   1.244538E+00   3.307883E+00   4.758138E+00   5.564268E-01   2.291811E+00   5.231284E+00   4.979097E-01   1.284014E+00   1.359067E+01   1.005194E+00   3.590522E+00   1.272674E+01   2.954139E+00   1.426746E+00   8.680511E+00   2.887632E-01   2.915871E-01   3.342279E+00   8.459299E-01   2.994801E+00   1.232866E+01   3.010308E-01   2.498337E-01   3.441289E+00   2.472424E+00   4.058608E-01   9.272894E+00   3.307419E+00   1.359636E+00   6.458564E+00   1.266032E+00   4.823700E+00   8.674438E+00   7.845074E+00   1.615478E+00   2.598305E+00   2.016472E-01   5.029402E-01   2.862224E+00   2.179247E-01   2.026195E-01   5.294205E+00   1.991022E-01   2.038604E-01   6.743111E+00   1.668270E+00   1.915506E+00   4.842682E+00   3.653135E+00   1.705511E+00   8.655551E+00   9.030427E+00   3.923005E+00   3.580173E+00   1.667796E+00   2.574241E-01   3.749971E+00   6.500135E-01   5.730072E-01   2.018416E+00   1.329907E+00   3.253509E+00   7.360428E+00   1.294103E+00   1.965368E+00   5.612517E+00   7.701110E-01   3.953975E+00   6.046452E+00   4.788476E+00   4.815543E+00   1.286885E+01   1.111736E+00   3.771588E+00   4.134855E+00   1.766668E+00   2.535677E+00   1.957191E-01   7.319010E-01   2.136379E+00   1.914515E+00   1.063015E+00   4.620984E+00   7.960513E+00   1.134372E+01   1.090301E+00   1.187479E+01   6.167915E+00   8.961272E-01   7.328490E+00   8.639623E+00   5.386553E-01   8.793817E+00   3.123806E+00   1.078807E+00   8.078625E+00   5.432426E+00   2.044193E+00   1.096640E+01   1.073446E+01   1.359879E+00   9.940413E+00   1.561887E+01   4.284114E+00   1.340142E+01   2.187100E+00   1.802423E+00   8.981303E-01   2.131427E-01   1.407347E+00   1.750252E+00   2.600027E-01   2.791783E+00   1.012299E+01   9.496691E+00   8.257301E-01   1.016266E+01   1.156592E+00   1.471633E+00   3.342535E-01   8.050058E+00   3.156474E+00   9.717554E+00   1.250007E+01   3.217881E+00   5.164211E+00   2.016063E-01   1.888299E+00   4.418488E+00   4.319872E+00   2.521473E-01   5.530395E+00   5.546914E+00   4.043576E+00   1.473366E+01   1.489780E+00   3.243600E+00   5.884806E+00   5.448050E-01   2.690636E+00   7.440138E+00   1.084000E+00   5.423414E-01   6.640834E+00   6.335356E-01   3.552705E-01   2.236567E+00   2.483751E-01   2.374090E-01   1.424618E+01   1.240055E+00   4.224356E+00   1.428792E+01   3.397425E-01   4.566289E-01   8.516720E+00   1.287716E+00   4.648339E+00   5.623407E+00   2.100142E-01   3.664030E+00   5.744666E+00   8.429508E-01   4.334091E+00   1.766697E+00   1.692528E+01   3.363240E+00   3.217800E+00   2.156311E-01   3.391090E+00   1.392012E+01   1.130566E+00   4.548897E+00   3.408518E-01   1.029980E+00   4.620479E+00   1.991802E+00   1.254547E+01   5.331718E-01   3.003830E+00   1.275732E+01   3.358690E+00   4.520893E+00   4.366787E-01   5.180175E-01   6.769428E+00   4.633927E-01   3.672431E+00   2.839750E+00   2.092260E-01   2.158827E+00   1.473998E+01   9.389502E+00   1.098696E+00   1.858342E+00   6.192852E-01   3.196839E+00   2.664028E+00   6.189340E+00   3.809407E+00   1.619957E+00   2.729062E-01   1.816545E+00   7.766809E+00   1.219352E+00   8.751312E-01   1.442355E+01   2.414900E+00   2.410540E+00   8.460882E+00   1.861955E+01   2.909378E+00   1.694669E+00   1.285394E+01   3.199546E-01   8.550067E+00   1.144745E+00   1.311319E+00   2.916507E+00   2.515242E-01   2.962208E+00   3.804330E+00   4.927705E+00   3.546327E+00   1.412771E+01   5.132711E-01   4.103086E+00   3.031923E+00   9.270324E-01   1.398795E+00   1.867573E+00   1.386797E+00   9.362911E-01   8.472674E+00   3.238240E+00   4.239266E+00   1.043927E+01   4.542745E+00   3.841874E+00   4.390040E+00   5.666201E-01   1.205834E+00   1.705908E+00   7.959882E-01   3.942349E+00   8.663380E+00   5.267180E+00   3.377007E+00   1.325053E+01   7.586778E-01   4.952287E+00   8.316963E+00   1.315037E+00   3.321472E-01   8.891582E+00   8.592308E-01   3.195755E+00   2.406431E+00   8.075376E-01   2.551080E+00   3.542150E+00   6.483296E-01   9.286788E-01   7.147900E+00   2.408158E+00   4.182529E+00   6.843882E+00   1.141064E+01   2.687240E+00   2.039821E+00   1.347304E+00   3.827639E+00   7.948277E+00   1.061603E+01   3.471362E+00   7.499165E+00   1.790687E+00   4.253975E+00   6.045751E+00   7.771737E-01   3.834536E+00   8.540391E+00   2.525254E+01   9.638197E-01   3.226229E+00   5.782837E-01   5.991970E-01   3.868237E+00   6.223139E-01   4.678969E+00   6.226883E+00   1.058927E+00   1.052966E+00   8.371422E+00   1.564016E+01   4.475344E+00   1.445427E+00   8.033554E+00   4.716579E+00   8.989305E+00   2.118043E+00   1.202098E+00   7.831243E+00   1.073756E+01   2.510788E+00   3.973980E+00   2.031084E-01   6.013991E-01   6.264760E+00   9.394174E-01   2.430600E-01   6.979263E+00   1.394321E+00   1.361025E+00   1.476781E+01   6.590272E-01   1.207082E+00   1.399794E+00   2.254902E-01   4.218426E-01   3.032040E+00   5.806512E-01   2.062037E-01   1.451145E+01   8.661749E+00   1.302260E+00   4.511571E+00   2.051487E-01   2.161287E+00   4.356425E+00   1.317059E+01   8.070152E-01   3.396194E+00   1.345009E+00   9.536777E-01   2.754057E+00   6.489403E-01   3.819937E+00   6.549689E+00   2.181717E-01   3.010649E+00   2.167101E+00   1.632832E+00   1.631058E+00   9.955518E+00   2.403808E+00   1.121395E+00   1.195366E+01   3.895540E-01   1.937502E+00   9.092755E+00   2.590296E-01   2.331934E-01   9.490661E+00   6.917701E-01   2.261557E+00   9.673092E-01   1.588045E+00   4.218480E+00   6.565124E+00   1.147719E+00   4.291247E+00   5.162971E+00   1.081826E+00   2.346801E+00   1.982939E-01   1.002982E+00   4.186292E-01   5.255644E-01   5.959697E-01   1.873381E+00   6.384942E-01   3.630355E-01   2.237328E+00   6.286172E+00   9.143043E-01   2.611884E+00   2.169267E+00   9.793696E+00   5.237578E-01   1.305857E+01   4.079428E-01   2.162837E+00   4.002977E+00   3.045482E-01   2.866174E+00   4.544093E+00   4.924972E+00   2.188983E+00   8.636645E+00   5.108724E-01   1.483022E+00   7.054523E+00   7.907699E-01   2.122905E-01   9.801681E+00   5.605927E-01   4.106206E+00   3.474501E+00   9.674485E-01   6.598323E-01   6.359758E+00   5.877997E-01   1.927215E+00   7.782167E+00   1.147272E+00   2.494715E+00   1.016768E+01   2.668968E-01   2.878158E+00   2.128171E+00   2.009541E-01   1.212959E+00   1.326919E+01   7.967643E-01   3.155435E+00   5.646683E-01   6.303457E-01   1.189421E+00   8.029020E+00   8.074734E+00   2.051944E+00   1.053966E+01   6.763016E-01   2.569694E+00   5.305099E+00   5.295457E-01   4.738098E+00   8.938834E+00   4.584071E+00   3.992479E+00   4.911107E+00   2.020612E-01   2.203704E+00   4.665535E+00   5.788681E+00   2.540974E+00   5.962413E+00   6.485909E-01   2.766520E-01   1.203961E+00   5.834281E-01   1.390460E+00   1.923046E+00   2.654295E+00   1.849991E+00   1.204240E+00   2.009111E-01   7.875865E-01   1.293004E+01   2.882001E-01   1.108808E+00   1.198909E+01   8.393905E+00   2.333100E+00   7.635005E+00   2.365008E+00   3.787257E+00   9.098669E+00   2.185637E-01   4.299522E+00   5.456109E+00   8.174503E-01   1.526036E+00   8.854080E+00   5.733602E+00   1.048359E+00   1.005521E+01   6.623405E+00   1.040016E+00   9.645285E+00   6.360369E+00   1.976450E+00   1.075560E+00   6.610497E+00   4.525984E+00   1.424219E+01   3.985442E-01   3.183114E+00   3.518508E+00   5.728995E+00  
[...]
<PointData Scalars="Diameter" Vectors="Velocity">
<DataArray type="Float32" Name="Diameter" format="ascii">
  4.000000E-01   4.000000E-01   4.000000E-01   4.000000E-01   4.000000E-01   4.000000E-01   4.000000E-01   4.000000E-01   4.000000E-01   4.000000E-01   4.000000E-01   4.000000E-01   4.000000E-01   4.000000E-01   4.000000E-01   4.000000E-01   4.000000E-01   4.000000E-01   4.000000E-01   4.000000E-01   4.000000E-01   4.000000E-01   4.000000E-01   4.000000E-01   4.000000E-01   4.000000E-01   4.000000E-01   4.000000E-01   4.000000E-01   4.000000E-01   4.000000E-01   4.000000E-01   4.000000E-01   4.000000E-01   4.000000E-01   4.000000E-01   4.000000E-01   4.000000E-01   4.000000E-01   4.000000E-01   4.000000E-01   4.000000E-01   4.000000E-01   4.000000E-01   4.000000E-01   4.000000E-01   4.000000E-01   4.000000E-01   4.000000E-01   4.000000E-01   4.000000E-01   4.000000E-01   4.000000E-01   4.000000E-01   4.000000E-01   4.000000E-01   4.000000E-01   4.000000E-01   4.000000E-01   4.000000E-01   4.000000E-01   4.000000E-01   4.000000E-01   4.000000E-01   4.000000E-01   4.000000E-01   4.000000E-01   4.000000E-01   4.000000E-01   4.000000E-01   4.000000E-01   4.000000E-01   4.000000E-01   4.000000E-01   4.000000E-01   4.000000E-01   4.000000E-01   4.000000E-01   4.000000E-01   4.000000E-01   4.000000E-01   4.000000E-01   4.000000E-01   4.000000E-01   4.000000E-01   4.000000E-01   4.000000E-01   4.000000E-01   4.000000E-01   4.000000E-01   4.000000E-01   4.000000E-01   4.000000E-01   4.000000E-01   4.000000E-01   4.000000E-01   4.000000E-01   4.000000E-01   4.000000E-01   4.000000E-01   4.000000E-01   4.000000E-01   4.000000E-01   4.000000E-01   4.000000E-01   4.000000E-01   4.000000E-01   4.000000E-01   4.000000E-01   4.000000E-01   4.000000E-01   4.000000E-01   4.000000E-01   4.000000E-01   4.000000E-01   4.000000E-01   4.000000E-01   4.000000E-01   4.000000E-01   4.000000E-01   4.000000E-01   4.000000E-01   4.000000E-01   4.000000E-01   4.000000E-01   4.000000E-01   4.000000E-01   4.000000E-01   4.000000E-01   4.000000E-01   4.000000E-01   4.000000E-01   4.000000E-01   4.000000E-01   4.000000E-01   4.000000E-01   4.000000E-01   4.000000E-01   4.000000E-01   4.000000E-01   4.000000E-01   4.000000E-01   4.000000E-01   4.000000E-01   4.000000E-01   4.000000E-01   4.000000E-01   4.000000E-01   4.000000E-01   4.000000E-01   4.000000E-01   4.000000E-01   4.000000E-01   4.000000E-01   4.000000E-01   4.000000E-01   4.000000E-01   4.000000E-01   4.000000E-01   4.000000E-01   4.000000E-01   4.000000E-01   4.000000E-01   4.000000E-01   4.000000E-01   4.000000E-01   4.000000E-01   4.000000E-01   4.000000E-01   4.000000E-01   4.000000E-01   4.000000E-01   4.000000E-01   4.000000E-01   4.000000E-01   4.000000E-01   4.000000E-01   4.000000E-01   4.000000E-01   4.000000E-01   4.000000E-01   4.000000E-01   4.000000E-01   4.000000E-01   4.000000E-01   4.000000E-01   4.000000E-01   4.000000E-01   4.000000E-01   4.000000E-01   4.000000E-01   4.000000E-01   4.000000E-01   4.000000E-01   4.000000E-01   4.000000E-01   4.000000E-01   4.000000E-01   4.000000E-01   4.000000E-01   4.000000E-01   4.000000E-01   4.000000E-01   4.000000E-01   4.000000E-01   4.000000E-01   4.000000E-01   4.000000E-01   4.000000E-01   4.000000E-01   4.000000E-01   4.000000E-01   4.000000E-01   4.000000E-01   4.000000E-01   4.000000E-01   4.000000E-01   4.000000E-01   4.000000E-01   4.000000E-01   4.000000E-01   4.000000E-01   4.000000E-01   4.000000E-01   4.000000E-01   4.000000E-01   4.000000E-01   4.000000E-01   4.000000E-01   4.000000E-01   4.000000E-01   4.000000E-01   4.000000E-01   4.000000E-01   4.000000E-01   4.000000E-01   4.000000E-01   4.000000E-01   4.000000E-01   4.000000E-01   4.000000E-01   4.000000E-01   4.000000E-01   4.000000E-01   4.000000E-01   4.000000E-01   4.000000E-01   4.000000E-01   4.000000E-01   4.000000E-01   4.000000E-01   4.000000E-01   4.000000E-01   4.000000E-01   4.000000E-01   4.000000E-01   4.000000E-01   4.000000E-01   4.000000E-01   4.000000E-01   4.000000E-01   4.000000E-01   4.000000E-01   4.000000E-01   4.000000E-01   4.000000E-01   4.000000E-01   4.000000E-01   4.000000E-01   4.000000E-01   4.000000E-01   4.000000E-01   4.000000E-01   4.000000E-01   4.000000E-01   4.000000E-01   4.000000E-01   4.000000E-01   4.000000E-01   4.000000E-01   4.000000E-01   4.000000E-01   4.000000E-01   4.000000E-01   4.000000E-01   4.000000E-01   4.000000E-01   4.000000E-01   4.000000E-01   4.000000E-01   4.000000E-01   4.000000E-01   4.000000E-01   4.000000E-01   4.000000E-01   4.000000E-01   4.000000E-01   4.000000E-01   4.000000E-01   4.000000E-01   4.000000E-01   4.000000E-01   4.000000E-01   4.000000E-01   4.000000E-01   4.000000E-01   4.000000E-01   4.000000E-01   4.000000E-01   4.000000E-01   4.000000E-01   4.000000E-01   4.000000E-01   4.000000E-01   4.000000E-01   4.000000E-01   4.000000E-01   4.000000E-01   4.000000E-01   4.000000E-01   4.000000E-01   4.000000E-01   4.000000E-01   4.000000E-01   4.000000E-01   4.000000E-01   4.000000E-01   4.000000E-01   4.000000E-01   4.000000E-01   4.000000E-01   4.000000E-01   4.000000E-01   4.000000E-01   4.000000E-01   4.000000E-01   4.000000E-01   4.000000E-01   4.000000E-01   4.000000E-01   4.000000E-01   4.000000E-01   4.000000E-01   4.000000E-01   4.000000E-01   4.000000E-01   4.000000E-01   4.000000E-01   4.000000E-01   4.000000E-01   4.000000E-01   4.000000E-01   4.000000E-01   4.000000E-01   4.000000E-01   4.000000E-01   4.000000E-01   4.000000E-01   4.000000E-01   4.000000E-01   4.000000E-01   4.000000E-01   4.000000E-01   4.000000E-01   4.000000E-01   4.000000E-01   4.000000E-01   4.000000E-01   4.000000E-01   4.000000E-01   4.000000E-01   4.000000E-01   4.000000E-01   4.000000E-01   4.000000E-01   4.000000E-01   4.000000E-01   4.000000E-01   4.000000E-01   4.000000E-01   4.000000E-01   4.000000E-01   4.000000E-01   4.000000E-01   4.000000E-01   4.000000E-01   4.000000E-01   4.000000E-01   4.000000E-01   4.000000E-01   4.000000E-01   4.000000E-01   4.000000E-01   4.000000E-01   4.000000E-01   4.000000E-01   4.000000E-01   4.000000E-01   4.000000E-01   4.000000E-01   4.000000E-01   4.000000E-01   4.000000E-01   4.000000E-01   4.000000E-01   4.000000E-01   4.000000E-01   4.000000E-01   4.000000E-01   4.000000E-01   4.000000E-01   4.000000E-01   4.000000E-01   4.000000E-01   4.000000E-01   4.000000E-01   4.000000E-01   4.000000E-01   4.000000E-01   4.000000E-01   4.000000E-01   4.000000E-01   4.000000E-01   4.000000E-01   4.000000E-01   4.000000E-01   4.000000E-01   4.000000E-01   4.000000E-01   4.000000E-01   4.000000E-01   4.000000E-01   4.000000E-01   4.000000E-01   4.000000E-01   4.000000E-01   4.000000E-01   4.000000E-01   4.000000E-01   4.000000E-01   4.000000E-01   4.000000E-01   4.000000E-01   4.000000E-01   4.000000E-01   4.000000E-01   4.000000E-01   4.000000E-01   4.000000E-01   4.000000E-01   4.000000E-01   4.000000E-01   4.000000E-01   4.000000E-01   4.000000E-01   4.000000E-01   4.000000E-01   4.000000E-01   4.000000E-01   4.000000E-01   4.000000E-01   4.000000E-01   4.000000E-01   4.000000E-01   4.000000E-01   4.000000E-01   4.000000E-01   4.000000E-01   4.000000E-01   4.000000E-01   4.000000E-01   4.000000E-01   4.000000E-01   4.000000E-01   4.000000E-01   4.000000E-01   4.000000E-01   4.000000E-01   4.000000E-01   4.000000E-01   4.000000E-01   4.000000E-01   4.000000E-01   4.000000E-01   4.000000E-01   4.000000E-01   4.000000E-01   4.000000E-01   4.000000E-01   4.000000E-01   4.000000E-01   4.000000E-01   4.000000E-01   4.000000E-01   4.000000E-01   4.000000E-01   4.000000E-01   4.000000E-01   4.000000E-01   4.000000E-01   4.000000E-01   4.000000E-01   4.000000E-01   4.000000E-01   4.000000E-01   4.000000E-01   4.000000E-01   4.000000E-01   4.000000E-01   4.000000E-01   4.000000E-01   4.000000E-01   4.000000E-01   4.000000E-01   4.000000E-01   4.000000E-01   4.000000E-01   4.000000E-01   4.000000E-01   4.000000E-01   4.000000E-01   4.000000E-01   4.000000E-01   4.000000E-01   4.000000E-01   4.000000E-01   4.000000E-01   4.000000E-01   4.000000E-01   4.000000E-01   4.000000E-01   4.000000E-01   4.000000E-01   4.000000E-01   4.000000E-01   4.000000E-01   4.000000E-01   4.000000E-01   4.000000E-01   4.000000E-01   4.000000E-01   4.000000E-01   4.000000E-01   4.000000E-01   4.000000E-01   4.000000E-01   4.000000E-01   4.000000E-01   4.000000E-01   4.000000E-01   4.000000E-01   4.000000E-01   4.000000E-01   4.000000E-01   4.000000E-01   4.000000E-01   4.000000E-01   4.000000E-01   4.000000E-01   4.000000E-01   4.000000E-01   4.000000E-01   4.000000E-01   4.000000E-01   4.000000E-01   4.000000E-01   4.000000E-01   4.000000E-01   4.000000E-01   4.000000E-01   4.000000E-01   4.000000E-01   4.000000E-01   4.000000E-01   4.000000E-01   4.000000E-01   4.000000E-01   4.000000E-01   4.000000E-01   4.000000E-01   4.000000E-01   4.000000E-01   4.000000E-01   4.000000E-01   4.000000E-01   4.000000E-01   4.000000E-01   4.000000E-01   4.000000E-01   4.000000E-01   4.000000E-01   4.000000E-01   4.000000E-01   4.000000E-01   4.000000E-01   4.000000E-01   4.000000E-01   4.000000E-01   4.000000E-01   4.000000E-01   4.000000E-01   4.000000E-01   4.000000E-01   4.000000E-01   4.000000E-01   4.000000E-01   4.000000E-01   4.000000E-01   4.000000E-01   4.000000E-01   4.000000E-01   4.000000E-01   4.000000E-01   4.000000E-01   4.000000E-01   4.000000E-01   4.000000E-01   4.000000E-01   4.000000E-01   4.000000E-01   4.000000E-01   4.000000E-01   4.000000E-01   4.000000E-01   4.000000E-01   4.000000E-01   4.000000E-01   4.000000E-01   4.000000E-01   4.000000E-01   4.000000E-01   4.000000E-01   4.000000E-01   4.000000E-01   4.000000E-01   4.000000E-01   4.000000E-01   4.000000E-01   4.000000E-01   4.000000E-01   4.000000E-01   4.000000E-01   4.000000E-01   4.000000E-01   4.000000E-01   4.000000E-01   4.000000E-01   4.000000E-01   4.000000E-01   4.000000E-01   4.000000E-01   4.000000E-01   4.000000E-01   4.000000E-01   4.000000E-01   4.000000E-01   4.000000E-01   4.000000E-01   4.000000E-01   4.000000E-01   4.000000E-01   4.000000E-01   4.000000E-01   4.000000E-01   4.000000E-01   4.000000E-01   4.000000E-01   4.000000E-01   4.000000E-01   4.000000E-01   4.000000E-01   4.000000E-01   4.000000E-01   4.000000E-01   4.000000E-01   4.000000E-01   4.000000E-01   4.000000E-01   4.000000E-01   4.000000E-01   4.000000E-01   4.000000E-01   4.000000E-01   4.000000E-01   4.000000E-01   4.000000E-01   4.000000E-01   4.000000E-01   4.000000E-01   4.000000E-01   4.000000E-01   4.000000E-01   4.000000E-01   4.000000E-01   4.000000E-01   4.000000E-01   4.000000E-01   4.000000E-01   4.000000E-01   4.000000E-01   4.000000E-01   4.000000E-01   4.000000E-01   4.000000E-01   4.000000E-01   4.000000E-01   4.000000E-01   4.000000E-01   4.000000E-01   4.000000E-01   4.000000E-01   4.000000E-01   4.000000E-01   4.000000E-01   4.000000E-01   4.000000E-01   4.000000E-01   4.000000E-01   4.000000E-01   4.000000E-01   4.000000E-01   4.000000E-01   4.000000E-01   4.000000E-01   4.000000E-01   4.000000E-01   4.000000E-01   4.000000E-01   4.000000E-01   4.000000E-01   4.000000E-01   4.000000E-01   4.000000E-01   4.000000E-01   4.000000E-01   4.000000E-01   4.000000E-01   4.000000E-01   4.000000E-01   4.000000E-01   4.000000E-01   4.000000E-01   4.000000E-01   4.000000E-01   4.000000E-01   4.000000E-01   4.000000E-01   4.000000E-01   4.000000E-01   4.000000E-01   4.000000E-01   4.000000E-01   4.000000E-01   4.000000E-01   4.000000E-01   4.000000E-01   4.000000E-01   4.000000E-01   4.000000E-01   4.000000E-01   4.000000E-01   4.000000E-01   4.000000E-01   4.000000E-01   4.000000E-01   4.000000E-01   4.000000E-01   4.000000E-01   4.000000E-01   4.000000E-01   4.000000E-01   4.000000E-01   4.000000E-01   4.000000E-01   4.000000E-01   4.000000E-01   4.000000E-01   4.000000E-01   4.000000E-01   4.000000E-01   4.000000E-01   4.000000E-01   4.000000E-01   4.000000E-01   4.000000E-01   4.000000E-01   4.000000E-01   4.000000E-01   4.000000E-01   4.000000E-01   4.000000E-01   4.000000E-01   4.000000E-01   4.000000E-01   4.000000E-01   4.000000E-01   4.000000E-01   4.000000E-01   4.000000E-01   4.000000E-01   4.000000E-01   4.000000E-01   4.000000E-01   4.000000E-01   4.000000E-01   4.000000E-01   4.000000E-01   4.000000E-01   4.000000E-01   4.000000E-01   4.000000E-01   4.000000E-01   4.000000E-01   4.000000E-01   4.000000E-01   4.000000E-01   4.000000E-01   4.000000E-01   4.000000E-01   4.000000E-01   4.000000E-01   4.000000E-01   4.000000E-01   4.000000E-01   4.000000E-01   4.000000E-01   4.000000E-01   4.000000E-01   4.000000E-01   4.000000E-01   4.000000E-01   4.000000E-01   4.000000E-01   4.000000E-01   4.000000E-01   4.000000E-01   4.000000E-01   4.000000E-01   4.000000E-01   4.000000E-01   4.000000E-01   4.000000E-01   4.000000E-01   4.000000E-01   4.000000E-01   4.000000E-01   4.000000E-01   4.000000E-01   4.000000E-01   4.000000E-01   4.000000E-01   4.000000E-01   4.000000E-01   4.000000E-01   4.000000E-01   4.000000E-01   4.000000E-01   4.000000E-01   4.000000E-01   4.000000E-01   4.000000E-01   4.000000E-01   4.000000E-01   4.000000E-01   4.000000E-01   4.000000E-01   4.000000E-01   4.000000E-01   4.000000E-01   4.000000E-01   4.000000E-01   4.000000E-01   4.000000E-01   4.000000E-01   4.000000E-01   4.000000E-01   4.000000E-01   4.000000E-01   4.000000E-01   4.000000E-01   4.000000E-01   4.000000E-01   4.000000E-01   4.000000E-01   4.000000E-01   4.000000E-01   4.000000E-01   4.000000E-01   4.000000E-01   4.000000E-01   4.000000E-01   4.000000E-01   4.000000E-01   4.000000E-01   4.000000E-01   4.000000E-01   4.000000E-01   4.000000E-01   4.000000E-01   4.000000E-01   4.000000E-01   4.000000E-01   4.000000E-01   4.000000E-01   4.000000E-01   4.000000E-01   4.000000E-01   4.000000E-01   4.000000E-01   4.000000E-01   4.000000E-01   4.000000E-01   4.000000E-01   4.000000E-01   4.000000E-01   4.000000E-01   4.000000E-01   4.000000E-01   4.000000E-01   4.000000E-01   4.000000E-01   4.000000E-01   4.000000E-01   4.000000E-01   4.000000E-01   4.000000E-01   4.000000E-01   4.000000E-01   4.000000E-01   4.000000E-01   4.000000E-01   4.000000E-01   4.000000E-01   4.000000E-01   4.000000E-01   4.000000E-01   4.000000E-01   4.000000E-01   4.000000E-01   4.000000E-01   4.000000E-01   4.000000E-01   4.000000E-01   4.000000E-01   4.000000E-01   4.000000E-01   4.000000E-01   4.000000E-01   4.000000E-01   4.000000E-01   4.000000E-01   4.000000E-01   4.000000E-01   4.000000E-01   4.000000E-01   4.000000E-01   4.000000E-01   4.000000E-01   4.000000E-01   4.000000E-01   4.000000E-01   4.000000E-01   4.000000E-01   4.000000E-01   4.000000E-01   4.000000E-01   4.000000E-01   4.000000E-01   4.000000E-01   4.000000E-01   4.000000E-01   4.000000E-01   4.000000E-01   4.000000E-01   4.000000E-01   4.000000E-01   4.000000E-01   4.000000E-01   4.000000E-01   4.000000E-01   4.000000E-01   4.000000E-01   4.000000E-01   4.000000E-01   4.000000E-01   4.000000E-01   4.000000E-01   4.000000E-01   4.000000E-01   4.000000E-01   4.000000E-01   4.000000E-01   4.000000E-01   4.000000E-01   4.000000E-01   4.000000E-01   4.000000E-01   4.000000E-01   4.000000E-01   4.000000E-01   4.000000E-01   4.000000E-01   4.000000E-01   4.000000E-01   4.000000E-01   4.000000E-01   4.000000E-01   4.000000E-01   4.000000E-01   4.000000E-01   4.000000E-01   4.000000E-01   4.000000E-01   4.000000E-01   4.000000E-01   4.000000E-01   4.000000E-01   4.000000E-01   4.000000E-01   4.000000E-01   4.000000E-01   4.000000E-01   4.000000E-01   4.000000E-01   4.000000E-01   4.000000E-01   4.000000E-01   4.000000E-01   4.000000E-01   4.000000E-01   4.000000E-01   4.000000E-01   4.000000E-01   4.000000E-01   4.000000E-01   4.000000E-01   4.000000E-01   4.000000E-01   4.000000E-01   4.000000E-01   4.000000E-01   4.000000E-01   4.000000E-01   4.000000E-01   4.000000E-01   4.000000E-01   4.000000E-01   4.000000E-01   4.000000E-01   4.000000E-01   4.000000E-01   4.000000E-01   4.000000E-01   4.000000E-01   4.000000E-01   4.000000E-01   4.000000E-01   4.000000E-01   4.000000E-01   4.000000E-01   4.000000E-01   4.000000E-01   4.000000E-01   4.000000E-01   4.000000E-01   4.000000E-01   4.000000E-01   4.000000E-01   4.000000E-01   4.000000E-01   4.000000E-01   4.000000E-01   4.000000E-01   4.000000E-01   4.000000E-01   4.000000E-01   4.000000E-01   4.000000E-01   4.000000E-01   4.000000E-01   4.000000E-01   4.000000E-01   4.000000E-01   4.000000E-01   4.000000E-01   4.000000E-01   4.000000E-01   4.000000E-01   4.000000E-01   4.000000E-01   4.000000E-01   4.000000E-01   4.000000E-01   4.000000E-01   4.000000E-01   4.000000E-01   4.000000E-01   4.000000E-01   4.000000E-01   4.000000E-01   4.000000E-01   4.000000E-01   4.000000E-01   4.000000E-01   4.000000E-01   4.000000E-01   4.000000E-01   4.000000E-01   4.000000E-01   4.000000E-01   4.000000E-01   4.000000E-01   4.000000E-01   4.000000E-01   4.000000E-01   4.000000E-01   4.000000E-01   4.000000E-01   4.000000E-01   4.000000E-01   4.000000E-01   4.000000E-01   4.000000E-01   4.000000E-01   4.000000E-01   4.000000E-01   4.000000E-01   4.000000E-01   4.000000E-01   4.000000E-01   4.000000E-01   4.000000E-01   4.000000E-01   4.000000E-01   4.000000E-01   4.000000E-01   4.000000E-01   4.000000E-01   4.000000E-01   4.000000E-01   4.000000E-01   4.000000E-01   4.000000E-01   4.000000E-01   4.000000E-01   4.000000E-01   4.000000E-01   4.000000E-01   4.000000E-01   4.000000E-01   4.000000E-01   4.000000E-01   4.000000E-01   4.000000E-01   4.000000E-01   4.000000E-01   4.000000E-01   4.000000E-01   4.000000E-01   4.000000E-01   4.000000E-01   4.000000E-01   4.000000E-01   4.000000E-01   4.000000E-01   4.000000E-01   4.000000E-01   4.000000E-01   4.000000E-01   4.000000E-01   4.000000E-01   4.000000E-01   4.000000E-01   4.000000E-01   4.000000E-01   4.000000E-01   4.000000E-01   4.000000E-01   4.000000E-01   4.000000E-01   4.000000E-01   4.000000E-01   4.000000E-01   4.000000E-01   4.000000E-01   4.000000E-01   4.000000E-01   4.000000E-01   4.000000E-01   4.000000E-01   4.000000E-01   4.000000E-01   4.000000E-01   4.000000E-01   4.000000E-01   4.000000E-01   4.000000E-01   4.000000E-01   4.000000E-01   4.000000E-01   4.000000E-01   4.000000E-01   4.000000E-01   4.000000E-01   4.000000E-01   4.000000E-01   4.000000E-01   4.000000E-01   4.000000E-01   4.000000E-01   4.000000E-01   4.000000E-01   4.000000E-01   4.000000E-01   4.000000E-01   4.000000E-01   4.000000E-01   4.000000E-01   4.000000E-01   4.000000E-01   4.000000E-01   4.000000E-01   4.000000E-01   4.000000E-01   4.000000E-01   4.000000E-01   4.000000E-01   4.000000E-01   4.000000E-01   4.000000E-01   4.000000E-01   4.000000E-01   4.000000E-01   4.000000E-01   4.000000E-01   4.000000E-01   4.000000E-01   4.000000E-01   4.000000E-01   4.000000E-01   4.000000E-01   4.000000E-01   4.000000E-01   4.000000E-01   4.000000E-01   4.000000E-01   4.000000E-01   4.000000E-01   4.000000E-01   4.000000E-01   4.000000E-01   4.000000E-01   4.000000E-01   4.000000E-01   4.000000E-01   4.000000E-01   4.000000E-01   4.000000E-01   4.000000E-01   4.000000E-01   4.000000E-01   4.000000E-01   4.000000E-01   4.000000E-01   4.000000E-01   4.000000E-01   4.000000E-01   4.000000E-01   4.000000E-01   4.000000E-01   4.000000E-01   4.000000E-01   4.000000E-01   4.000000E-01   4.000000E-01   4.000000E-01   4.000000E-01   4.000000E-01   4.000000E-01   4.000000E-01   4.000000E-01   4.000000E-01   4.000000E-01   4.000000E-01   4.000000E-01   4.000000E-01   4.000000E-01   4.000000E-01   4.000000E-01   4.000000E-01   4.000000E-01   4.000000E-01   4.000000E-01   4.000000E-01   4.000000E-01   4.000000E-01   4.000000E-01   4.000000E-01   4.000000E-01   4.000000E-01   4.000000E-01   4.000000E-01   4.000000E-01   4.000000E-01   4.000000E-01   4.000000E-01   4.000000E-01   4.000000E-01   4.000000E-01   4.000000E-01   4.000000E-01   4.000000E-01   4.000000E-01   4.000000E-01   4.000000E-01   4.000000E-01   4.000000E-01   4.000000E-01   4.000000E-01   4.000000E-01   4.000000E-01   4.000000E-01   4.000000E-01   4.000000E-01   4.000000E-01   4.000000E-01   