<?xml version="1.0"?>
<!-- Time =  1.0048362602810097E-01s -->
<VTKFile type="PolyData" version="0.1" byte_order="LittleEndian">
<PolyData>
<Piece NumberOfPoints="0000002400" NumberOfVerts="0" NumberOfLines="0" NumberOfStrips="0" NumberOfPolys="0">
<Points>
<DataArray type="Float32" Name="Position" NumberOfComponents="3" format="ascii">
  2.034740E-01   1.997226E-01   2.102060E-01   6.596357E-01   1.998298E-01   2.101821E-01   1.066700E+00   1.997341E-01   2.100278E-01   1.471010E+00   1.998551E-01   2.101360E-01   1.886380E+00   1.997215E-01   2.101665E-01   2.395190E+00   1.990797E-01   2.102213E-01   2.808021E+00   1.998727E-01   2.098062E-01   3.207901E+00   2.001667E-01   2.102507E-01   3.613161E+00   1.999053E-01   2.096340E-01   4.016584E+00   1.998401E-01   2.103547E-01   4.418560E+00   2.000337E-01   2.097476E-01   4.825385E+00   1.995576E-01   2.089257E-01   5.227512E+00   1.974572E-01   2.107559E-01   5.630621E+00   1.997740E-01   2.106825E-01   6.139525E+00   1.996583E-01   2.139854E-01   6.601147E+00   2.608831E-01   2.182220E-01   6.752142E+00   1.670994E+00   2.383646E-01   7.159552E+00   2.020978E+00   2.673247E-01   7.582589E+00   2.325660E+00   3.230935E-01   7.769973E+00   1.150378E+00   2.068941E-01   8.459174E+00   2.057036E-01   2.176130E-01   9.079433E+00   2.017210E-01   2.132150E-01   9.492714E+00   2.025093E-01   2.143957E-01   9.902434E+00   2.001090E-01   2.106928E-01   1.031141E+01   1.999157E-01   2.107224E-01   1.079692E+01   2.002795E-01   2.105382E-01   1.120370E+01   2.016830E-01   2.099538E-01   1.160606E+01   1.999116E-01   2.101872E-01   1.204265E+01   2.006180E-01   2.099477E-01   1.244765E+01   1.998382E-01   2.098230E-01   1.285326E+01   2.000272E-01   2.098947E-01   1.329146E+01   1.998458E-01   2.096269E-01   1.369152E+01   1.997135E-01   2.096044E-01   1.412467E+01   1.993293E-01   2.094577E-01   1.452771E+01   1.998696E-01   2.094434E-01   1.993794E-01   5.994977E-01   2.105228E-01   5.989414E-01   5.950578E-01   2.105036E-01   9.985418E-01   5.936825E-01   2.101242E-01   1.398419E+00   5.930312E-01   2.103968E-01   1.798072E+00   5.897249E-01   2.104848E-01   2.195129E+00   5.446513E-01   2.105255E-01   2.598379E+00   5.437658E-01   2.094192E-01   3.005653E+00   5.483761E-01   2.087960E-01   3.411499E+00   5.450910E-01   2.085683E-01   3.814958E+00   5.451475E-01   2.091171E-01   4.217663E+00   5.454141E-01   2.087900E-01   4.622208E+00   5.443196E-01   2.059647E-01   5.027079E+00   5.445416E-01   2.158036E-01   5.427865E+00   5.427346E-01   1.997170E-01   5.884027E+00   5.093357E-01   2.009184E-01   6.602201E+00   7.589936E-01   2.271412E-01   6.210679E+00   2.201566E+00   2.176175E-01   6.680965E+00   2.793561E+00   4.295886E-01   7.648424E+00   2.775538E+00   2.821063E-01   8.140283E+00   1.346117E+00   2.050730E-01   8.779154E+00   4.697789E-01   2.044152E-01   9.286067E+00   5.451596E-01   2.132990E-01   9.703989E+00   5.483142E-01   2.153078E-01   1.010774E+01   5.437061E-01   2.005759E-01   1.055458E+01   5.191909E-01   2.106492E-01   1.100404E+01   5.487279E-01   2.085654E-01   1.140942E+01   5.510033E-01   2.089482E-01   1.182269E+01   5.363812E-01   2.096509E-01   1.222272E+01   5.578370E-01   2.087643E-01   1.262259E+01   5.602106E-01   2.093219E-01   1.302260E+01   5.626952E-01   2.094033E-01   1.342212E+01   5.781781E-01   2.090189E-01   1.382194E+01   5.777715E-01   2.089376E-01   1.422142E+01   5.871593E-01   2.087516E-01   1.462326E+01   5.889651E-01   2.087323E-01   1.999032E-01   9.994105E-01   2.102974E-01   6.003617E-01   9.950176E-01   2.102564E-01   1.000711E+00   9.936737E-01   2.102357E-01   1.400805E+00   9.937903E-01   2.102997E-01   1.805982E+00   9.896974E-01   2.102983E-01   2.203334E+00   9.444798E-01   2.103322E-01   2.608365E+00   9.439030E-01   2.100480E-01   3.009067E+00   9.502116E-01   2.096602E-01   3.415160E+00   9.449950E-01   2.093210E-01   3.817791E+00   9.449009E-01   2.122224E-01   4.227323E+00   9.446776E-01   2.089098E-01   4.643428E+00   9.431210E-01   2.073271E-01   5.041968E+00   9.439115E-01   2.311543E-01   5.442218E+00   9.418437E-01   2.320781E-01   5.857095E+00   9.124586E-01   2.150515E-01   5.665596E+00   1.272872E+00   2.590204E-01   5.718400E+00   2.354428E+00   2.095783E-01   7.062210E+00   3.173877E+00   2.092570E-01   7.726838E+00   3.356536E+00   3.518834E-01   8.806255E+00   1.148941E+00   2.041914E-01   8.549696E+00   7.989329E-01   2.100680E-01   9.118980E+00   9.089823E-01   2.137465E-01   9.590599E+00   9.326199E-01   2.150748E-01   1.003920E+01   9.416414E-01   2.084890E-01   1.044445E+01   9.037815E-01   2.107213E-01   1.086134E+01   9.222584E-01   2.111875E-01   1.126231E+01   9.255030E-01   2.097227E-01   1.167400E+01   9.094377E-01   2.099853E-01   1.207898E+01   9.312844E-01   2.094800E-01   1.248005E+01   9.352502E-01   2.095799E-01   1.288154E+01   9.372218E-01   2.096456E-01   1.329076E+01   9.605494E-01   2.092230E-01   1.370754E+01   9.621308E-01   2.092325E-01   1.412394E+01   9.751943E-01   2.089478E-01   1.464294E+01   9.882966E-01   2.089523E-01   2.075740E-01   1.996769E-01   6.301839E-01   6.291181E-01   1.997282E-01   6.301467E-01   1.063088E+00   1.997187E-01   6.300759E-01   1.471015E+00   1.998219E-01   6.301031E-01   1.873269E+00   1.997591E-01   6.299196E-01   2.276973E+00   1.998153E-01   6.304556E-01   2.775970E+00   1.995600E-01   6.295705E-01   3.227287E+00   1.997387E-01   6.301874E-01   3.629432E+00   1.998018E-01   6.293956E-01   4.029894E+00   1.999812E-01   6.303254E-01   4.434927E+00   1.995548E-01   6.307415E-01   4.846128E+00   1.996219E-01   6.272411E-01   5.272477E+00   1.996440E-01   6.286709E-01   5.768116E+00   2.005105E-01   6.287314E-01   6.194191E+00   2.000109E-01   6.397243E-01   6.586724E+00   2.415436E-01   7.383983E-01   6.647944E+00   5.321882E+00   5.352780E-01   7.345703E+00   6.287555E+00   7.591949E-01   7.761768E+00   6.226129E+00   7.643019E-01   7.851846E+00   3.800771E+00   7.870366E-01   8.272842E+00   3.377822E-01   6.431430E-01   9.050963E+00   2.053568E-01   6.428685E-01   9.535358E+00   1.994396E-01   6.379616E-01   9.951927E+00   1.997133E-01   6.303249E-01   1.036407E+01   1.997710E-01   6.310494E-01   1.076395E+01   2.000387E-01   6.313014E-01   1.116578E+01   1.998109E-01   6.300338E-01   1.163355E+01   1.992586E-01   6.301703E-01   1.204400E+01   1.996037E-01   6.299775E-01   1.244805E+01   1.996040E-01   6.298560E-01   1.285281E+01   2.009255E-01   6.300127E-01   1.325386E+01   2.010467E-01   6.296989E-01   1.367515E+01   2.029283E-01   6.296226E-01   1.407620E+01   2.054154E-01   6.294818E-01   1.447955E+01   2.013837E-01   6.295046E-01   2.005365E-01   5.993633E-01   6.305317E-01   6.009439E-01   5.985387E-01   6.305075E-01   1.001026E+00   5.946733E-01   6.303112E-01   1.401226E+00   5.935702E-01   6.305311E-01   1.801272E+00   5.930517E-01   6.299209E-01   2.201990E+00   5.925900E-01   6.311947E-01   2.601653E+00   5.598046E-01   6.297165E-01   3.001496E+00   5.298219E-01   6.276889E-01   3.428290E+00   5.454388E-01   6.294307E-01   3.829427E+00   5.461367E-01   6.276909E-01   4.233047E+00   5.444753E-01   6.340757E-01   4.640440E+00   5.425483E-01   6.168555E-01   5.058931E+00   5.370788E-01   6.498384E-01   5.519157E+00   5.150791E-01   6.354995E-01   5.982810E+00   5.354494E-01   5.875833E-01   6.768476E+00   1.089323E+00   5.721576E-01   5.667569E+00   5.522730E+00   5.344163E-01   6.121074E+00   6.597086E+00   4.754917E-01   7.861519E+00   6.625713E+00   5.592635E-01   7.990723E+00   4.292131E+00   5.868015E-01   8.816314E+00   5.318159E-01   6.044382E-01   9.300054E+00   5.227318E-01   6.519458E-01   9.735484E+00   5.479689E-01   6.390600E-01   1.016392E+01   5.458910E-01   6.181743E-01   1.056372E+01   5.466610E-01   6.297392E-01   1.096483E+01   5.456693E-01   6.298428E-01   1.140036E+01   5.236723E-01   6.285898E-01   1.183108E+01   5.470034E-01   6.294549E-01   1.224381E+01   5.461971E-01   6.284094E-01   1.265173E+01   5.492956E-01   6.291192E-01   1.305513E+01   5.492324E-01   6.292998E-01   1.346847E+01   5.552015E-01   6.286946E-01   1.386854E+01   5.612592E-01   6.288340E-01   1.429065E+01   5.653653E-01   6.286438E-01   1.473930E+01   5.125081E-01   6.286480E-01   2.025803E-01   9.992060E-01   6.303828E-01   6.054906E-01   9.983881E-01   6.303529E-01   1.007238E+00   9.945391E-01   6.304737E-01   1.408817E+00   9.934505E-01   6.303543E-01   1.816081E+00   9.927543E-01   6.303338E-01   2.217193E+00   9.921898E-01   6.306360E-01   2.615777E+00   9.602925E-01   6.300918E-01   3.015793E+00   9.293782E-01   6.297673E-01   3.415334E+00   9.451385E-01   6.292020E-01   3.815259E+00   9.457864E-01   6.328998E-01   4.217248E+00   9.441184E-01   6.302279E-01   4.619773E+00   9.417456E-01   6.193048E-01   5.023139E+00   9.349564E-01   6.550963E-01   5.421807E+00   9.026725E-01   6.780286E-01   5.832153E+00   9.020876E-01   6.331035E-01   4.696989E+00   1.377617E+00   5.970396E-01   4.777272E+00   4.956261E+00   5.496314E-01   6.540414E+00   7.361052E+00   4.466138E-01   7.926724E+00   6.996770E+00   3.944519E-01   9.071353E+00   2.873352E+00   5.913447E-01   8.515771E+00   8.797211E-01   6.294994E-01   9.164171E+00   9.064190E-01   6.420898E-01   9.579021E+00   9.168261E-01   6.383200E-01   1.000775E+01   9.142851E-01   6.266187E-01   1.045064E+01   9.308547E-01   6.297916E-01   1.090975E+01   9.421770E-01   6.309271E-01   1.131194E+01   9.135979E-01   6.291296E-01   1.171648E+01   9.296718E-01   6.294993E-01   1.212759E+01   9.374731E-01   6.289872E-01   1.252905E+01   9.375449E-01   6.291289E-01   1.294557E+01   9.369984E-01   6.293023E-01   1.336032E+01   9.447936E-01   6.288278E-01   1.377936E+01   9.569487E-01   6.289012E-01   1.422264E+01   9.727619E-01   6.287587E-01   1.478716E+01   9.108851E-01   6.291341E-01   2.004308E-01   1.997714E-01   1.050161E+00   6.123263E-01   1.997179E-01   1.050344E+00   1.015269E+00   1.998536E-01   1.050220E+00   1.469346E+00   1.997946E-01   1.049730E+00   1.960110E+00   1.994254E-01  
[...]
<PointData Scalars="Diameter" Vectors="Velocity">
<DataArray type="Float32" Name="Diameter" format="ascii">
  4.000000E-01   4.000000E-01   4.000000E-01   4.000000E-01   4.000000E-01   4.000000E-01   4.000000E-01   4.000000E-01   4.000000E-01   4.000000E-01   4.000000E-01   4.000000E-01   4.000000E-01   4.000000E-01   4.000000E-01   4.000000E-01   4.000000E-01   4.000000E-01   4.000000E-01   4.000000E-01   4.000000E-01   4.000000E-01   4.000000E-01   4.000000E-01   4.000000E-01   4.000000E-01   4.000000E-01   4.000000E-01   4.000000E-01   4.000000E-01   4.000000E-01   4.000000E-01   4.000000E-01   4.000000E-01   4.000000E-01   4.000000E-01   4.000000E-01   4.000000E-01   4.000000E-01   4.000000E-01   4.000000E-01   4.000000E-01   4.000000E-01   4.000000E-01   4.000000E-01   4.000000E-01   4.000000E-01   4.000000E-01   4.000000E-01   4.000000E-01   4.000000E-01   4.000000E-01   4.000000E-01   4.000000E-01   4.000000E-01   4.000000E-01   4.000000E-01   4.000000E-01   4.000000E-01   4.000000E-01   4.000000E-01   4.000000E-01   4.000000E-01   4.000000E-01   4.000000E-01   4.000000E-01   4.000000E-01   4.000000E-01   4.000000E-01   4.000000E-01   4.000000E-01   4.000000E-01   4.000000E-01   4.000000E-01   4.000000E-01   4.000000E-01   4.000000E-01   4.000000E-01   4.000000E-01   4.000000E-01   4.000000E-01   4.000000E-01   4.000000E-01   4.000000E-01   4.000000E-01   4.000000E-01   4.000000E-01   4.000000E-01   4.000000E-01   4.000000E-01   4.000000E-01   4.000000E-01   4.000000E-01   4.000000E-01   4.000000E-01   4.000000E-01   4.000000E-01   4.000000E-01   4.000000E-01   4.000000E-01   4.000000E-01   4.000000E-01   4.000000E-01   4.000000E-01   4.000000E-01   4.000000E-01   4.000000E-01   4.000000E-01   4.000000E-01   4.000000E-01   4.000000E-01   4.000000E-01   4.000000E-01   4.000000E-01   4.000000E-01   4.000000E-01   4.000000E-01   4.000000E-01   4.000000E-01   4.000000E-01   4.000000E-01   4.000000E-01   4.000000E-01   4.000000E-01   4.000000E-01   4.000000E-01   4.000000E-01   4.000000E-01   4.000000E-01   4.000000E-01   4.000000E-01   4.000000E-01   4.000000E-01   4.000000E-01   4.000000E-01   4.000000E-01   4.000000E-01   4.000000E-01   4.000000E-01   4.000000E-01   4.000000E-01   4.000000E-01   4.000000E-01   4.000000E-01   4.000000E-01   4.000000E-01   4.000000E-01   4.000000E-01   4.000000E-01   4.000000E-01   4.000000E-01   4.000000E-01   4.000000E-01   4.000000E-01   4.000000E-01   4.000000E-01   4.000000E-01   4.000000E-01   4.000000E-01   4.000000E-01   4.000000E-01   4.000000E-01   4.000000E-01   4.000000E-01   4.000000E-01   4.000000E-01   4.000000E-01   4.000000E-01   4.000000E-01   4.000000E-01   4.000000E-01   4.000000E-01   4.000000E-01   4.000000E-01   4.000000E-01   4.000000E-01   4.000000E-01   4.000000E-01   4.000000E-01   4.000000E-01   4.000000E-01   4.000000E-01   4.000000E-01   4.000000E-01   4.000000E-01   4.000000E-01   4.000000E-01   4.000000E-01   4.000000E-01   4.000000E-01   4.000000E-01   4.000000E-01   4.000000E-01   4.000000E-01   4.000000E-01   4.000000E-01   4.000000E-01   4.000000E-01   4.000000E-01   4.000000E-01   4.000000E-01   4.000000E-01   4.000000E-01   4.000000E-01   4.000000E-01   4.000000E-01   4.000000E-01   4.000000E-01   4.000000E-01   4.000000E-01   4.000000E-01   4.000000E-01   4.000000E-01   4.000000E-01   4.000000E-01   4.000000E-01   4.000000E-01   4.000000E-01   4.000000E-01   4.000000E-01   4.000000E-01   4.000000E-01   4.000000E-01   4.000000E-01   4.000000E-01   4.000000E-01   4.000000E-01   4.000000E-01   4.000000E-01   4.000000E-01   4.000000E-01   4.000000E-01   4.000000E-01   4.000000E-01   4.000000E-01   4.000000E-01   4.000000E-01   4.000000E-01   4.000000E-01   4.000000E-01   4.000000E-01   4.000000E-01   4.000000E-01   4.000000E-01   4.000000E-01   4.000000E-01   4.000000E-01   4.000000E-01   4.000000E-01   4.000000E-01   4.000000E-01   4.000000E-01   4.000000E-01   4.000000E-01   4.000000E-01   4.000000E-01   4.000000E-01   4.000000E-01   4.000000E-01   4.000000E-01   4.000000E-01   4.000000E-01   4.000000E-01   4.000000E-01   4.000000E-01   4.000000E-01   4.000000E-01   4.000000E-01   4.000000E-01   4.000000E-01   4.000000E-01   4.000000E-01   4.000000E-01   4.000000E-01   4.000000E-01   4.000000E-01   4.000000E-01   4.000000E-01   4.000000E-01   4.000000E-01   4.000000E-01   4.000000E-01   4.000000E-01   4.000000E-01   4.000000E-01   4.000000E-01   4.000000E-01   4.000000E-01   4.000000E-01   4.000000E-01   4.000000E-01   4.000000E-01   4.000000E-01   4.000000E-01   4.000000E-01   4.000000E-01   4.000000E-01   4.000000E-01   4.000000E-01   4.000000E-01   4.000000E-01   4.000000E-01   4.000000E-01   4.000000E-01   4.000000E-01   4.000000E-01   4.000000E-01   4.000000E-01   4.000000E-01   4.000000E-01   4.000000E-01   4.000000E-01   4.000000E-01   4.000000E-01   4.000000E-01   4.000000E-01   4.000000E-01   4.000000E-01   4.000000E-01   4.000000E-01   4.000000E-01   4.000000E-01   4.000000E-01   4.000000E-01   4.000000E-01   4.000000E-01   4.000000E-01   4.000000E-01   4.000000E-01   4.000000E-01   4.000000E-01   4.000000E-01   4.000000E-01   4.000000E-01   4.000000E-01   4.000000E-01   4.000000E-01   4.000000E-01   4.000000E-01   4.000000E-01   4.000000E-01   4.000000E-01   4.000000E-01   4.000000E-01   4.000000E-01   4.000000E-01   4.000000E-01   4.000000E-01   4.000000E-01   4.000000E-01   4.000000E-01   4.000000E-01   4.000000E-01   4.000000E-01   4.000000E-01   4.000000E-01   4.000000E-01   4.000000E-01   4.000000E-01   4.000000E-01   4.000000E-01   4.000000E-01   4.000000E-01   4.000000E-01   4.000000E-01   4.000000E-01   4.000000E-01   4.000000E-01   4.000000E-01   4.000000E-01   4.000000E-01   4.000000E-01   4.000000E-01   4.000000E-01   4.000000E-01   4.000000E-01   4.000000E-01   4.000000E-01   4.000000E-01   4.000000E-01   4.000000E-01   4.000000E-01   4.000000E-01   4.000000E-01   4.000000E-01   4.000000E-01   4.000000E-01   4.000000E-01   4.000000E-01   4.000000E-01   4.000000E-01   4.000000E-01   4.000000E-01   4.000000E-01   4.000000E-01   4.000000E-01   4.000000E-01   4.000000E-01   4.000000E-01   4.000000E-01   4.000000E-01   4.000000E-01   4.000000E-01   4.000000E-01   4.000000E-01   4.000000E-01   4.000000E-01   4.000000E-01   4.000000E-01   4.000000E-01   4.000000E-01   4.000000E-01   4.000000E-01   4.000000E-01   4.000000E-01   4.000000E-01   4.000000E-01   4.000000E-01   4.000000E-01   4.000000E-01   4.000000E-01   4.000000E-01   4.000000E-01   4.000000E-01   4.000000E-01   4.000000E-01   4.000000E-01   4.000000E-01   4.000000E-01   4.000000E-01   4.000000E-01   4.000000E-01   4.000000E-01   4.000000E-01   4.000000E-01   4.000000E-01   4.000000E-01   4.000000E-01   4.000000E-01   4.000000E-01   4.000000E-01   4.000000E-01   4.000000E-01   4.000000E-01   4.000000E-01   4.000000E-01   4.000000E-01   4.000000E-01   4.000000E-01   4.000000E-01   4.000000E-01   4.000000E-01   4.000000E-01   4.000000E-01   4.000000E-01   4.000000E-01   4.000000E-01   4.000000E-01   4.000000E-01   4.000000E-01   4.000000E-01   4.000000E-01   4.000000E-01   4.000000E-01   4.000000E-01   4.000000E-01   4.000000E-01   4.000000E-01   4.000000E-01   4.000000E-01   4.000000E-01   4.000000E-01   4.000000E-01   4.000000E-01   4.000000E-01   4.000000E-01   4.000000E-01   4.000000E-01   4.000000E-01   4.000000E-01   4.000000E-01   4.000000E-01   4.000000E-01   4.000000E-01   4.000000E-01   4.000000E-01   4.000000E-01   4.000000E-01   4.000000E-01   4.000000E-01   4.000000E-01   4.000000E-01   4.000000E-01   4.000000E-01   4.000000E-01   4.000000E-01   4.000000E-01   4.000000E-01   4.000000E-01   4.000000E-01   4.000000E-01   4.000000E-01   4.000000E-01   4.000000E-01   4.000000E-01   4.000000E-01   4.000000E-01   4.000000E-01   4.000000E-01   4.000000E-01   4.000000E-01   4.000000E-01   4.000000E-01   4.000000E-01   4.000000E-01   4.000000E-01   4.000000E-01   4.000000E-01   4.000000E-01   4.000000E-01   4.000000E-01   4.000000E-01   4.000000E-01   4.000000E-01   4.000000E-01   4.000000E-01   4.000000E-01   4.000000E-01   4.000000E-01   4.000000E-01   4.000000E-01   4.000000E-01   4.000000E-01   4.000000E-01   4.000000E-01   4.000000E-01   4.000000E-01   4.000000E-01   4.000000E-01   4.000000E-01   4.000000E-01   4.000000E-01   4.000000E-01   4.000000E-01   4.000000E-01   4.000000E-01   4.000000E-01   4.000000E-01   4.000000E-01   4.000000E-01   4.000000E-01   4.000000E-01   4.000000E-01   4.000000E-01   4.000000E-01   4.000000E-01   4.000000E-01   4.000000E-01   4.000000E-01   4.000000E-01   4.000000E-01   4.000000E-01   4.000000E-01   4.000000E-01   4.000000E-01   4.000000E-01   4.000000E-01   4.000000E-01   4.000000E-01   4.000000E-01   4.000000E-01   4.000000E-01   4.000000E-01   4.000000E-01   4.000000E-01   4.000000E-01   4.000000E-01   4.000000E-01   4.000000E-01   4.000000E-01   4.000000E-01   4.000000E-01   4.000000E-01   4.000000E-01   4.000000E-01   4.000000E-01   4.000000E-01   4.000000E-01   4.000000E-01   4.000000E-01   4.000000E-01   4.000000E-01   4.000000E-01   4.000000E-01   4.000000E-01   4.000000E-01   4.000000E-01   4.000000E-01   4.000000E-01   4.000000E-01   4.000000E-01   4.000000E-01   4.000000E-01   4.000000E-01   4.000000E-01   4.000000E-01   4.000000E-01   4.000000E-01   4.000000E-01   4.000000E-01   4.000000E-01   4.000000E-01   4.000000E-01   4.000000E-01   4.000000E-01   4.000000E-01   4.000000E-01   4.000000E-01   4.000000E-01   4.000000E-01   4.000000E-01   4.000000E-01   4.000000E-01   4.000000E-01   4.000000E-01   4.000000E-01   4.000000E-01   4.000000E-01   4.000000E-01   4.000000E-01   4.000000E-01   4.000000E-01   4.000000E-01   4.000000E-01   4.000000E-01   4.000000E-01   4.000000E-01   4.000000E-01   4.000000E-01   4.000000E-01   4.000000E-01   4.000000E-01   4.000000E-01   4.000000E-01   4.000000E-01   4.000000E-01   4.000000E-01   4.000000E-01   4.000000E-01   4.000000E-01   4.000000E-01   4.000000E-01   4.000000E-01   4.000000E-01   4.000000E-01   4.000000E-01   4.000000E-01   4.000000E-01   4.000000E-01   4.000000E-01   4.000000E-01   4.000000E-01   4.000000E-01   4.000000E-01   4.000000E-01   4.000000E-01   4.000000E-01   4.000000E-01   4.000000E-01   4.000000E-01   4.000000E-01   4.000000E-01   4.000000E-01   4.000000E-01   4.000000E-01   4.000000E-01   4.000000E-01   4.000000E-01   4.000000E-01   4.000000E-01   4.000000E-01   4.000000E-01   4.000000E-01   4.000000E-01   4.000000E-01   4.000000E-01   4.000000E-01   4.000000E-01   4.000000E-01   4.000000E-01   4.000000E-01   4.000000E-01   4.000000E-01   4.000000E-01   4.000000E-01   4.000000E-01   4.000000E-01   4.000000E-01   4.000000E-01   4.000000E-01   4.000000E-01   4.000000E-01   4.000000E-01   4.000000E-01   4.000000E-01   4.000000E-01   4.000000E-01   4.000000E-01   4.000000E-01   4.000000E-01   4.000000E-01   4.000000E-01   4.000000E-01   4.000000E-01   4.000000E-01   4.000000E-01   4.000000E-01   4.000000E-01   4.000000E-01   4.000000E-01   4.000000E-01   4.000000E-01   4.000000E-01   4.000000E-01   4.000000E-01   4.000000E-01   4.000000E-01   4.000000E-01   4.000000E-01   4.000000E-01   4.000000E-01   4.000000E-01   4.000000E-01   4.000000E-01   4.000000E-01   4.000000E-01   4.000000E-01   4.000000E-01   4.000000E-01   4.000000E-01   4.000000E-01   4.000000E-01   4.000000E-01   4.000000E-01   4.000000E-01   4.000000E-01   4.000000E-01   4.000000E-01   4.000000E-01   4.000000E-01   4.000000E-01   4.000000E-01   4.000000E-01   4.000000E-01   4.000000E-01   4.000000E-01   4.000000E-01   4.000000E-01   4.000000E-01   4.000000E-01   4.000000E-01   4.000000E-01   4.000000E-01   4.000000E-01   4.000000E-01   4.000000E-01   4.000000E-01   4.000000E-01   4.000000E-01   4.000000E-01   4.000000E-01   4.000000E-01   4.000000E-01   4.000000E-01   4.000000E-01   4.000000E-01   4.000000E-01   4.000000E-01   4.000000E-01   4.000000E-01   4.000000E-01   4.000000E-01   4.000000E-01   4.000000E-01   4.000000E-01   4.000000E-01   4.000000E-01   4.000000E-01   4.000000E-01   4.000000E-01   4.000000E-01   4.000000E-01   4.000000E-01   4.000000E-01   4.000000E-01   4.000000E-01   4.000000E-01   4.000000E-01   4.000000E-01   4.000000E-01   4.000000E-01   4.000000E-01   4.000000E-01   4.000000E-01   4.000000E-01   4.000000E-01   4.000000E-01   4.000000E-01   4.000000E-01   4.000000E-01   4.000000E-01   4.000000E-01   4.000000E-01   4.000000E-01   4.000000E-01   4.000000E-01   4.000000E-01   4.000000E-01   4.000000E-01   4.000000E-01   4.000000E-01   4.000000E-01   4.000000E-01   4.000000E-01   4.000000E-01   4.000000E-01   4.000000E-01   4.000000E-01   4.000000E-01   4.000000E-01   4.000000E-01   4.000000E-01   4.000000E-01   4.000000E-01   4.000000E-01   4.000000E-01   4.000000E-01   4.000000E-01   4.000000E-01   4.000000E-01   4.000000E-01   4.000000E-01   4.000000E-01   4.000000E-01   4.000000E-01   4.000000E-01   4.000000E-01   4.000000E-01   4.000000E-01   4.000000E-01   4.000000E-01   4.000000E-01   4.000000E-01   4.000000E-01   4.000000E-01   4.000000E-01   4.000000E-01   4.000000E-01   4.000000E-01   4.000000E-01   4.000000E-01   4.000000E-01   4.000000E-01   4.000000E-01   4.000000E-01   4.000000E-01   4.000000E-01   4.000000E-01   4.000000E-01   4.000000E-01   4.000000E-01   4.000000E-01   4.000000E-01   4.000000E-01   4.000000E-01   4.000000E-01   4.000000E-01   4.000000E-01   4.000000E-01   4.000000E-01   4.000000E-01   4.000000E-01   4.000000E-01   4.000000E-01   4.000000E-01   4.000000E-01   4.000000E-01   4.000000E-01   4.000000E-01   4.000000E-01   4.000000E-01   4.000000E-01   4.000000E-01   4.000000E-01   4.000000E-01   4.000000E-01   4.000000E-01   4.000000E-01   4.000000E-01   4.000000E-01   4.000000E-01   4.000000E-01   4.000000E-01   4.000000E-01   4.000000E-01   4.000000E-01   4.000000E-01   4.000000E-01   4.000000E-01   4.000000E-01   4.000000E-01   4.000000E-01   4.000000E-01   4.000000E-01   4.000000E-01   4.000000E-01   4.000000E-01   4.000000E-01   4.000000E-01   4.000000E-01   4.000000E-01   4.000000E-01   4.000000E-01   4.000000E-01   4.000000E-01   4.000000E-01   4.000000E-01   4.000000E-01   4.000000E-01   4.000000E-01   4.000000E-01   4.000000E-01   4.000000E-01   4.000000E-01   4.000000E-01   4.000000E-01   4.000000E-01   4.000000E-01   4.000000E-01   4.000000E-01   4.000000E-01   4.000000E-01   4.000000E-01   4.000000E-01   4.000000E-01   4.000000E-01   4.000000E-01   4.000000E-01   4.000000E-01   4.000000E-01   4.000000E-01   4.000000E-01   4.000000E-01   4.000000E-01   4.000000E-01   4.000000E-01   4.000000E-01   4.000000E-01   4.000000E-01   4.000000E-01   4.000000E-01   4.000000E-01   4.000000E-01   4.000000E-01   4.000000E-01   4.000000E-01   4.000000E-01   4.000000E-01   4.000000E-01   4.000000E-01   4.000000E-01   4.000000E-01   4.000000E-01   4.000000E-01   4.000000E-01   4.000000E-01   4.000000E-01   4.000000E-01   4.000000E-01   4.000000E-01   4.000000E-01   4.000000E-01   4.000000E-01   4.000000E-01   4.000000E-01   4.000000E-01   4.000000E-01   4.000000E-01   4.000000E-01   4.000000E-01   4.000000E-01   4.000000E-01   4.000000E-01   4.000000E-01   4.000000E-01   4.000000E-01   4.000000E-01   4.000000E-01   4.000000E-01   4.000000E-01   4.000000E-01   4.000000E-01   4.000000E-01   4.000000E-01   4.000000E-01   4.000000E-01   4.000000E-01   4.000000E-01   4.000000E-01   4.000000E-01   4.000000E-01   4.000000E-01   4.000000E-01   4.000000E-01   4.000000E-01   4.000000E-01   4.000000E-01   4.000000E-01   4.000000E-01   4.000000E-01   4.000000E-01   4.000000E-01   4.000000E-01   4.000000E-01   4.000000E-01   4.000000E-01   4.000000E-01   4.000000E-01   4.000000E-01   4.000000E-01   4.000000E-01   4.000000E-01   4.000000E-01   4.000000E-01   4.000000E-01   4.000000E-01   4.000000E-01   4.000000E-01   4.000000E-01   4.000000E-01   4.000000E-01   4.000000E-01   4.000000E-01   4.000000E-01   4.000000E-01   4.000000E-01   4.000000E-01   4.000000E-01   4.000000E-01   4.000000E-01   4.000000E-01   4.000000E-01   4.000000E-01   4.000000E-01   4.000000E-01   4.000000E-01   4.000000E-01   4.000000E-01   4.000000E-01   4.000000E-01   4.000000E-01   4.000000E-01   4.000000E-01   4.000000E-01   4.000000E-01   4.000000E-01   4.000000E-01   4.000000E-01   4.000000E-01   4.000000E-01   4.000000E-01   4.000000E-01   4.000000E-01   4.000000E-01   4.000000E-01   4.000000E-01   4.000000E-01   4.000000E-01   4.000000E-01   4.000000E-01   4.000000E-01   4.000000E-01   4.000000E-01   4.000000E-01   4.000000E-01   4.000000E-01   4.000000E-01   4.000000E-01   4.000000E-01   4.000000E-01   4.000000E-01   4.000000E-01   4.000000E-01   4.000000E-01   4.000000E-01   4.000000E-01   4.000000E-01   4.000000E-01   4.000000E-01   4.000000E-01   4.000000E-01   4.000000E-01   4.000000E-01   4.000000E-01   4.000000E-01   4.000000E-01   4.000000E-01   4.000000E-01   4.000000E-01   4.000000E-01   4.000000E-01   4.000000E-01   4.000000E-01   4.000000E-01   4.000000E-01   4.000000E-01   4.000000E-01   4.000000E-01   4.000000E-01   4.000000E-01   4.000000E-01   4.000000E-01   4.000000E-01   4.000000E-01   4.000000E-01   4.000000E-01   4.000000E-01   4.000000E-01   4.000000E-01   4.000000E-01   4.000000E-01   4.000000E-01   4.000000E-01   4.000000E-01   4.000000E-01   4.000000E-01   4.000000E-01   4.000000E-01   4.000000E-01   4.000000E-01   4.000000E-01   4.000000E-01   4.000000E-01   4.000000E-01   4.000000E-01   4.000000E-01   4.000000E-01   4.000000E-01   4.000000E-01   4.000000E-01   4.000000E-01   4.000000E-01   4.000000E-01   4.000000E-01   4.000000E-01   4.000000E-01   4.000000E-01   4.000000E-01   4.000000E-01   4.000000E-01   4.000000E-01   4.000000E-01   4.000000E-01   4.000000E-01   4.000000E-01   4.000000E-01   4.000000E-01   4.000000E-01   4.000000E-01   4.000000E-01   4.000000E-01   4.000000E-01   4.000000E-01   4.000000E-01   4.000000E-01   4.000000E-01   4.000000E-01   4.000000E-01   4.000000E-01   4.000000E-01   4.000000E-01   4.000000E-01   4.000000E-01   4.000000E-01   4.000000E-01   4.000000E-01   4.000000E-01   4.000000E-01   4.000000E-01   4.000000E-01   4.000000E-01   4.000000E-01   4.000000E-01   4.000000E-01   4.000000E-01   4.000000E-01   4.000000E-01   4.000000E-01   4.000000E-01   4.000000E-01   4.000000E-01   4.000000E-01   4.000000E-01   4.000000E-01   4.000000E-01   4.000000E-01   4.000000E-01   4.000000E-01   4.000000E-01   4.000000E-01   4.000000E-01   4.000000E-01   4.000000E-01   4.000000E-01   4.000000E-01   4.000000E-01   4.000000E-01   4.000000E-01   4.000000E-01   4.000000E-01   4.000000E-01   4.000000E-01   4.000000E-01   4.000000E-01   4.000000E-01   4.000000E-01   4.000000E-01   4.000000E-01   4.000000E-01   4.000000E-01   4.000000E-01   4.000000E-01   4.000000E-01   4.000000E-01   4.000000E-01   4.000000E-01   4.000000E-01   4.000000E-01   4.000000E-01   4.000000E-01   4.000000E-01   4.000000E-01   4.000000E-01   4.000000E-01   4.000000E-01   4.000000E-01   4.000000E-01   4.000000E-01   4.000000E-01   4.000000E-01   4.000000E-01   4.000000E-01   4.000000E-01   4.000000E-01   4.000000E-01   4.000000E-01   4.000000E-01   4.000000E-01   4.000000E-01   4.000000E-01   4.000000E-01   4.000000E-01   4.000000E-01   4.000000E-01   4.000000E-01   4.000000E-01   4.000000E-01   4.000000E-01   4.000000E-01   4.000000E-01   4.000000E-01   4.000000E-01   4.000000E-01   4.000000E-01   4.000000E-01   4.000000E-01   4.000000E-01   4.000000E-01   4.000000E-01   4.000000E-01   4.000000E-01   4.000000E-01   4.000000E-01   4.000000E-01   4.000000E-01   4.000000E-01   4.000000E-01   4.000000E-01   4.000000E-01   4.000000E-01   4.000000E-01   4.000000E-01   4.000000E-01   4.000000E-01   4.000000E-01   4.000000E-01   4.000000E-01   4.000000E-01   4.000000E-01   4.000000E-01   4.000000E-01   4.000000E-01   4.000000E-01   4.000000E-01   4.000000E-01   4.000000E-01   4.000000E-01   4.000000E-01   4.000000E-01   4.000000E-01   4.000000E-01   4.000000E-01   4.000000E-01   4.000000E-01   4.000000E-01   4.000000E-01   4.000000E-01   4.000000E-01   4.000000E-01   4.000000E-01   4.000000E-01   4.000000E-01   4.000000E-01   4.000000E-01   4.000000E-01   4.000000E-01   