<?xml version="1.0"?>
<!-- Time =  7.0078362602810296E-01s -->
<VTKFile type="PolyData" version="0.1" byte_order="LittleEndian">
<PolyData>
<Piece NumberOfPoints="0000002400" NumberOfVerts="0" NumberOfLines="0" NumberOfStrips="0" NumberOfPolys="0">
<Points>
<DataArray type="Float32" Name="Position" NumberOfComponents="3" format="ascii">
  2.368549E-01   2.471546E-01   2.209252E-01   1.640037E+00   2.020909E-01   6.537066E-01   2.971756E+00   2.705383E-01   2.153971E-01   3.516542E+00   2.436624E-01   2.091595E-01   3.913498E+00   2.026476E-01   2.005894E-01   5.036922E+00   1.997239E-01   2.026462E-01   5.443444E+00   1.995709E-01   2.035120E-01   6.570869E+00   2.679816E-01   2.023123E-01   7.084283E+00   8.429654E-01   2.178100E-01   6.989409E+00   1.963013E+00   2.989698E-01   8.186264E+00   4.710214E+00   1.099547E+00   5.435328E+00   9.089398E-01   4.102926E-01   2.478177E+00   5.504996E+00   2.746115E+00   5.194345E+00   1.375192E+00   3.204563E-01   7.459652E+00   6.520938E+00   2.561534E-01   5.683755E+00   6.808113E-01   3.280443E+00   5.842558E+00   5.514095E-01   1.073938E+00   5.961565E+00   1.131420E+01   2.268846E+00   3.876679E+00   4.243933E+00   1.099447E+00   1.124167E+01   3.843703E+00   3.195150E+00   6.656745E+00   5.158514E+00   1.386485E+00   7.953655E+00   2.682843E+00   1.150648E+00   7.260325E+00   2.521001E+00   1.243571E+00   7.887228E+00   2.178596E+00   3.070600E-01   7.649600E+00   5.329704E-01   2.756938E-01   8.290943E+00   3.958340E-01   2.352212E-01   9.232044E+00   2.133005E-01   3.263945E-01   1.035600E+01   2.000262E-01   2.003633E-01   1.088149E+01   2.052889E-01   2.587375E-01   1.122112E+01   4.377301E-01   2.225841E-01   1.207180E+01   5.982566E-01   2.244680E-01   1.307199E+01   7.610993E-01   3.548507E-01   1.279129E+01   1.473625E+00   9.186640E-01   1.437382E+01   3.708813E-01   2.847814E-01   2.889020E-01   2.083579E-01   1.018153E+00   9.986084E-01   2.678772E-01   6.453150E-01   2.498318E+00   2.028123E-01   2.188563E-01   3.687094E+00   1.062524E+00   2.326438E-01   3.780892E+00   5.853605E-01   1.996025E-01   4.446103E+00   2.016896E-01   1.992743E-01   5.203198E+00   1.996929E-01   5.990435E-01   5.891828E+00   2.149587E-01   2.028980E-01   6.695408E+00   9.862756E-01   2.143462E-01   6.156291E+00   1.096282E+00   2.313537E-01   6.184587E+00   2.654221E+00   5.343625E-01   7.339186E+00   2.414471E+00   2.440511E-01   8.615294E+00   9.253980E-01   3.493404E-01   5.759384E+00   1.952958E+00   6.724946E-01   9.570371E+00   1.407946E+00   3.835012E+00   4.193790E+00   1.275447E+00   1.108282E+00   2.185878E+00   1.475393E+00   1.945836E+00   2.415903E+00   2.024015E-01   2.458704E+00   5.191489E+00   7.890788E-01   7.510727E-01   6.123093E+00   8.011121E-01   1.788533E+00   6.942465E+00   1.994683E+00   9.557968E-01   8.394883E+00   1.467610E+00   4.142160E+00   8.103576E+00   4.584491E+00   2.829687E+00   6.161367E+00   3.374656E+00   7.081175E-01   7.048483E+00   1.255942E+00   2.574249E-01   8.013735E+00   7.659274E-01   3.476050E-01   8.800718E+00   2.155528E-01   2.424401E-01   9.891573E+00   2.091852E-01   2.198649E-01   1.057999E+01   5.445800E-01   2.284545E-01   1.069877E+01   1.246992E+00   2.737544E-01   1.147564E+01   8.908760E-01   3.449241E-01   1.327006E+01   2.637356E-01   3.803781E-01   1.313322E+01   1.357138E+00   2.872888E-01   1.417372E+01   2.040457E+00   2.129373E-01   1.377379E+01   2.679827E-01   3.193292E-01   6.376597E-01   2.290763E-01   2.083124E-01   1.036149E+00   2.166846E-01   2.347182E-01   2.004894E+00   2.087210E-01   2.125066E-01   4.110877E+00   7.029467E-01   1.255161E+00   4.490163E+00   7.860376E-01   2.124667E-01   4.182355E+00   5.171954E-01   2.097223E-01   4.758276E+00   4.896418E-01   1.993770E-01   5.667235E+00   2.025542E-01   5.358956E-01   5.233771E+00   5.485963E-01   2.015596E-01   5.930947E+00   5.074627E-01   4.892117E-01   5.416496E+00   2.913154E+00   6.350107E-01   7.390412E+00   1.717464E+00   3.987040E-01   5.426404E+00   4.310244E+00   1.455548E+00   3.826928E-01   7.551420E+00   2.473621E+00   4.178500E+00   2.183055E+01   3.859769E+00   6.323957E+00   4.961087E-01   1.126315E+00   7.263825E+00   1.332724E+00   1.342102E+00   2.244817E+00   8.978506E+00   2.037478E+00   3.712888E+00   1.126525E+01   3.975766E+00   6.048738E+00   7.201323E+00   2.417413E+00   1.116386E+01   1.303491E+01   3.700741E+00   8.477829E+00   7.878888E-01   2.255576E+00   6.285997E+00   1.964019E+00   1.922557E-01   6.130194E+00   6.963993E-01   8.159899E-01   7.885689E+00   3.749998E+00   1.444995E+00   7.604636E+00   1.291390E+00   1.977016E-01   8.623759E+00   7.988896E-01   1.485153E+00   9.896544E+00   8.459641E-01   2.429020E-01   1.013487E+01   5.204483E-01   2.875969E-01   1.092085E+01   5.688107E-01   4.951730E-01   1.060759E+01   8.179805E-01   5.755894E-01   1.129702E+01   6.032000E-01   7.038962E-01   1.154421E+01   2.078665E-01   4.465680E+00   1.348497E+01   1.771593E+00   9.054459E-01   1.455012E+01   1.718973E+00   2.070904E+00   8.372527E-01   1.997768E-01   1.470441E+00   2.809816E+00   2.898445E-01   6.230861E-01   3.220066E+00   2.041873E-01   5.422013E-01   3.695188E+00   2.051637E-01   5.762208E-01   4.181748E+00   2.028922E-01   5.058523E-01   4.741278E+00   1.987770E-01   4.728742E-01   5.638342E+00   1.997344E-01   9.436167E-01   6.912550E+00   7.097656E-01   6.494508E-01   6.535351E+00   1.722367E+00   4.244189E-01   4.339864E+00   9.016863E+00   1.331361E+00   5.623603E+00   8.347634E+00   2.110933E+00   6.119874E+00   1.157834E+01   2.746106E+00   5.906816E+00   1.124565E+00   2.759553E+00   1.171538E+01   2.566450E-01   1.142091E+00   3.103185E+00   2.270472E+01   1.937079E+00   4.869304E+00   4.003147E+00   2.637913E+00   3.437995E+00   4.820036E+00   2.302987E+00   8.687160E+00   1.751849E+01   2.376370E+00   1.452012E+00   7.126433E+00   4.121462E+00   5.813207E+00   2.659387E+01   2.134184E+00   5.014694E-01   3.248369E-01   1.712398E+00   9.369601E+00   6.002424E-01   4.839879E+00   2.972429E+00   2.325932E+00   2.603435E+00   8.056874E+00   1.480514E+01   1.723495E+00   4.309862E+00   7.453218E+00   1.517193E+00   7.944597E+00   3.468017E-01   5.522548E-01   8.822528E+00   2.042319E-01   6.402151E-01   9.625140E+00   2.076727E-01   5.249721E-01   1.025921E+01   2.011835E-01   9.563634E-01   1.094596E+01   2.049566E-01   1.258713E+00   1.131659E+01   2.202457E-01   5.452046E-01   1.168289E+01   2.134800E-01   2.135277E-01   1.335230E+01   5.471218E-01   6.643906E-01   1.475773E+01   2.134144E-01   8.124824E-01   6.862857E-01   2.895618E-01   9.804943E-01   1.237902E+00   2.005286E-01   1.479434E+00   2.358345E+00   8.480418E-01   2.864017E-01   3.745160E+00   5.158824E-01   9.416443E-01   4.707088E+00   7.221563E-01   7.394289E-01   4.472119E+00   4.937637E-01   5.020521E-01   5.230551E+00   2.002072E-01   1.007770E+00   6.250177E+00   2.020801E-01   4.728537E-01   6.499775E+00   1.123565E+00   7.167225E-01   5.209849E+00   6.727330E+00   7.381397E-01   5.312318E+00   1.076973E+01   1.735400E+00   9.652006E+00   1.666675E+01   2.785315E+00   1.267006E+01   2.393487E+00   3.227116E+00   1.396764E+01   1.417550E+00   3.075852E+00   3.651828E+00   9.087242E-01   1.047401E+00   4.878021E+00   2.988348E-01   8.346831E-01   6.237987E+00   5.011409E-01   1.998655E-01   1.455631E+01   1.074592E+00   2.394234E-01   5.952998E+00   4.511819E+00   1.034924E+00   1.471404E+01   5.472682E-01   2.376921E+00   1.980273E+00   2.067654E+01   3.015908E+00   1.267717E+01   1.899064E+00   2.286674E-01   2.277582E+00   1.654542E+00   1.520904E+00   6.253575E+00   4.793394E+00   5.003619E-01   7.120314E+00   2.301229E+00   6.277363E-01   8.683042E+00   5.389997E-01   4.573687E-01   9.108075E+00   6.385717E-01   2.746302E-01   1.014242E+01   2.021557E-01   5.411392E-01   1.053839E+01   2.001103E-01   6.138270E-01   1.093154E+01   2.116777E-01   6.869347E-01   1.200987E+01   1.288613E+00   2.920999E-01   1.266289E+01   1.981088E-01   3.374223E-01   1.391581E+01   5.220955E-01   5.980410E-01   1.476760E+01   2.185782E-01   3.455270E-01   2.308466E+00   4.517080E-01   1.223507E+00   2.502278E+00   1.357537E+00   1.113017E+00   3.307738E+00   6.026760E-01   2.057614E-01   3.981114E+00   5.295172E-01   6.162178E-01   4.330164E+00   5.138107E-01   9.772143E-01   5.462182E+00   8.353598E-01   1.223070E+00   4.993561E+00   5.306663E-01   5.202221E-01   6.009248E+00   2.077885E-01   7.938301E-01   6.445240E+00   5.648028E-01   5.446408E-01   4.035841E+00   9.110380E+00   1.852597E+00   7.565918E+00   8.092662E+00   7.314208E-01   1.074180E+01   3.202034E+00   2.582320E+00   5.033470E+00   1.013303E+00   2.840071E-01   5.662209E+00   8.645735E-01   1.651744E+00   4.357481E+00   3.498376E+00   2.068603E+00   6.203212E+00   7.864109E-01   2.566961E+00   5.998634E+00   1.095529E+00   9.073005E-01   1.019749E+01   1.930711E+01   1.498649E+00   1.230167E+01   2.013108E+00   2.605820E+00   1.361217E+01   5.461979E-01   1.464505E+00   8.224969E+00   6.484501E-01   3.008103E+00   1.377237E+01   8.605131E-01   3.443262E+00   1.024139E+01   2.986863E+00   2.231573E-01   6.742787E+00   2.324454E+00   3.948581E-01   7.310046E+00   1.098762E+00   6.018217E-01   8.072715E+00   6.776123E-01   7.437032E-01   9.564930E+00   4.604407E-01   2.013231E-01   1.027944E+01   5.613397E-01   7.410362E-01   1.057816E+01   5.312566E-01   1.032912E+00   1.096477E+01   5.893379E-01   9.319024E-01   9.049567E+00   6.961291E-01   1.707615E+00   1.215926E+01   2.669991E-01   5.362433E-01   1.416606E+01   6.819417E-01   8.925549E-01   2.202235E-01   2.013733E-01   1.433938E+00   2.132949E+00   3.250498E-01   6.034055E-01   3.063002E+00   2.856548E-01   9.525971E-01   4.020609E+00   2.062425E-01   8.776610E-01   4.988987E+00   2.007879E-01   1.340023E+00   5.883890E+00   1.991665E-01   1.278301E+00   6.421265E+00   2.191223E-01   8.529922E-01   6.449174E+00   1.857737E+00   9.455743E-01   4.663896E+00   9.999854E+00   1.707200E+00   3.900713E+00   1.665773E+01  
[...]
<PointData Scalars="Diameter" Vectors="Velocity">
<DataArray type="Float32" Name="Diameter" format="ascii">
  4.000000E-01   4.000000E-01   4.000000E-01   4.000000E-01   4.000000E-01   4.000000E-01   4.000000E-01   4.000000E-01   4.000000E-01   4.000000E-01   4.000000E-01   4.000000E-01   4.000000E-01   4.000000E-01   4.000000E-01   4.000000E-01   4.000000E-01   4.000000E-01   4.000000E-01   4.000000E-01   4.000000E-01   4.000000E-01   4.000000E-01   4.000000E-01   4.000000E-01   4.000000E-01   4.000000E-01   4.000000E-01   4.000000E-01   4.000000E-01   4.000000E-01   4.000000E-01   4.000000E-01   4.000000E-01   4.000000E-01   4.000000E-01   4.000000E-01   4.000000E-01   4.000000E-01   4.000000E-01   4.000000E-01   4.000000E-01   4.000000E-01   4.000000E-01   4.000000E-01   4.000000E-01   4.000000E-01   4.000000E-01   4.000000E-01   4.000000E-01   4.000000E-01   4.000000E-01   4.000000E-01   4.000000E-01   4.000000E-01   4.000000E-01   4.000000E-01   4.000000E-01   4.000000E-01   4.000000E-01   4.000000E-01   4.000000E-01   4.000000E-01   4.000000E-01   4.000000E-01   4.000000E-01   4.000000E-01   4.000000E-01   4.000000E-01   4.000000E-01   4.000000E-01   4.000000E-01   4.000000E-01   4.000000E-01   4.000000E-01   4.000000E-01   4.000000E-01   4.000000E-01   4.000000E-01   4.000000E-01   4.000000E-01   4.000000E-01   4.000000E-01   4.000000E-01   4.000000E-01   4.000000E-01   4.000000E-01   4.000000E-01   4.000000E-01   4.000000E-01   4.000000E-01   4.000000E-01   4.000000E-01   4.000000E-01   4.000000E-01   4.000000E-01   4.000000E-01   4.000000E-01   4.000000E-01   4.000000E-01   4.000000E-01   4.000000E-01   4.000000E-01   4.000000E-01   4.000000E-01   4.000000E-01   4.000000E-01   4.000000E-01   4.000000E-01   4.000000E-01   4.000000E-01   4.000000E-01   4.000000E-01   4.000000E-01   4.000000E-01   4.000000E-01   4.000000E-01   4.000000E-01   4.000000E-01   4.000000E-01   4.000000E-01   4.000000E-01   4.000000E-01   4.000000E-01   4.000000E-01   4.000000E-01   4.000000E-01   4.000000E-01   4.000000E-01   4.000000E-01   4.000000E-01   4.000000E-01   4.000000E-01   4.000000E-01   4.000000E-01   4.000000E-01   4.000000E-01   4.000000E-01   4.000000E-01   4.000000E-01   4.000000E-01   4.000000E-01   4.000000E-01   4.000000E-01   4.000000E-01   4.000000E-01   4.000000E-01   4.000000E-01   4.000000E-01   4.000000E-01   4.000000E-01   4.000000E-01   4.000000E-01   4.000000E-01   4.000000E-01   4.000000E-01   4.000000E-01   4.000000E-01   4.000000E-01   4.000000E-01   4.000000E-01   4.000000E-01   4.000000E-01   4.000000E-01   4.000000E-01   4.000000E-01   4.000000E-01   4.000000E-01   4.000000E-01   4.000000E-01   4.000000E-01   4.000000E-01   4.000000E-01   4.000000E-01   4.000000E-01   4.000000E-01   4.000000E-01   4.000000E-01   4.000000E-01   4.000000E-01   4.000000E-01   4.000000E-01   4.000000E-01   4.000000E-01   4.000000E-01   4.000000E-01   4.000000E-01   4.000000E-01   4.000000E-01   4.000000E-01   4.000000E-01   4.000000E-01   4.000000E-01   4.000000E-01   4.000000E-01   4.000000E-01   4.000000E-01   4.000000E-01   4.000000E-01   4.000000E-01   4.000000E-01   4.000000E-01   4.000000E-01   4.000000E-01   4.000000E-01   4.000000E-01   4.000000E-01   4.000000E-01   4.000000E-01   4.000000E-01   4.000000E-01   4.000000E-01   4.000000E-01   4.000000E-01   4.000000E-01   4.000000E-01   4.000000E-01   4.000000E-01   4.000000E-01   4.000000E-01   4.000000E-01   4.000000E-01   4.000000E-01   4.000000E-01   4.000000E-01   4.000000E-01   4.000000E-01   4.000000E-01   4.000000E-01   4.000000E-01   4.000000E-01   4.000000E-01   4.000000E-01   4.000000E-01   4.000000E-01   4.000000E-01   4.000000E-01   4.000000E-01   4.000000E-01   4.000000E-01   4.000000E-01   4.000000E-01   4.000000E-01   4.000000E-01   4.000000E-01   4.000000E-01   4.000000E-01   4.000000E-01   4.000000E-01   4.000000E-01   4.000000E-01   4.000000E-01   4.000000E-01   4.000000E-01   4.000000E-01   4.000000E-01   4.000000E-01   4.000000E-01   4.000000E-01   4.000000E-01   4.000000E-01   4.000000E-01   4.000000E-01   4.000000E-01   4.000000E-01   4.000000E-01   4.000000E-01   4.000000E-01   4.000000E-01   4.000000E-01   4.000000E-01   4.000000E-01   4.000000E-01   4.000000E-01   4.000000E-01   4.000000E-01   4.000000E-01   4.000000E-01   4.000000E-01   4.000000E-01   4.000000E-01   4.000000E-01   4.000000E-01   4.000000E-01   4.000000E-01   4.000000E-01   4.000000E-01   4.000000E-01   4.000000E-01   4.000000E-01   4.000000E-01   4.000000E-01   4.000000E-01   4.000000E-01   4.000000E-01   4.000000E-01   4.000000E-01   4.000000E-01   4.000000E-01   4.000000E-01   4.000000E-01   4.000000E-01   4.000000E-01   4.000000E-01   4.000000E-01   4.000000E-01   4.000000E-01   4.000000E-01   4.000000E-01   4.000000E-01   4.000000E-01   4.000000E-01   4.000000E-01   4.000000E-01   4.000000E-01   4.000000E-01   4.000000E-01   4.000000E-01   4.000000E-01   4.000000E-01   4.000000E-01   4.000000E-01   4.000000E-01   4.000000E-01   4.000000E-01   4.000000E-01   4.000000E-01   4.000000E-01   4.000000E-01   4.000000E-01   4.000000E-01   4.000000E-01   4.000000E-01   4.000000E-01   4.000000E-01   4.000000E-01   4.000000E-01   4.000000E-01   4.000000E-01   4.000000E-01   4.000000E-01   4.000000E-01   4.000000E-01   4.000000E-01   4.000000E-01   4.000000E-01   4.000000E-01   4.000000E-01   4.000000E-01   4.000000E-01   4.000000E-01   4.000000E-01   4.000000E-01   4.000000E-01   4.000000E-01   4.000000E-01   4.000000E-01   4.000000E-01   4.000000E-01   4.000000E-01   4.000000E-01   4.000000E-01   4.000000E-01   4.000000E-01   4.000000E-01   4.000000E-01   4.000000E-01   4.000000E-01   4.000000E-01   4.000000E-01   4.000000E-01   4.000000E-01   4.000000E-01   4.000000E-01   4.000000E-01   4.000000E-01   4.000000E-01   4.000000E-01   4.000000E-01   4.000000E-01   4.000000E-01   4.000000E-01   4.000000E-01   4.000000E-01   4.000000E-01   4.000000E-01   4.000000E-01   4.000000E-01   4.000000E-01   4.000000E-01   4.000000E-01   4.000000E-01   4.000000E-01   4.000000E-01   4.000000E-01   4.000000E-01   4.000000E-01   4.000000E-01   4.000000E-01   4.000000E-01   4.000000E-01   4.000000E-01   4.000000E-01   4.000000E-01   4.000000E-01   4.000000E-01   4.000000E-01   4.000000E-01   4.000000E-01   4.000000E-01   4.000000E-01   4.000000E-01   4.000000E-01   4.000000E-01   4.000000E-01   4.000000E-01   4.000000E-01   4.000000E-01   4.000000E-01   4.000000E-01   4.000000E-01   4.000000E-01   4.000000E-01   4.000000E-01   4.000000E-01   4.000000E-01   4.000000E-01   4.000000E-01   4.000000E-01   4.000000E-01   4.000000E-01   4.000000E-01   4.000000E-01   4.000000E-01   4.000000E-01   4.000000E-01   4.000000E-01   4.000000E-01   4.000000E-01   4.000000E-01   4.000000E-01   4.000000E-01   4.000000E-01   4.000000E-01   4.000000E-01   4.000000E-01   4.000000E-01   4.000000E-01   4.000000E-01   4.000000E-01   4.000000E-01   4.000000E-01   4.000000E-01   4.000000E-01   4.000000E-01   4.000000E-01   4.000000E-01   4.000000E-01   4.000000E-01   4.000000E-01   4.000000E-01   4.000000E-01   4.000000E-01   4.000000E-01   4.000000E-01   4.000000E-01   4.000000E-01   4.000000E-01   4.000000E-01   4.000000E-01   4.000000E-01   4.000000E-01   4.000000E-01   4.000000E-01   4.000000E-01   4.000000E-01   4.000000E-01   4.000000E-01   4.000000E-01   4.000000E-01   4.000000E-01   4.000000E-01   4.000000E-01   4.000000E-01   4.000000E-01   4.000000E-01   4.000000E-01   4.000000E-01   4.000000E-01   4.000000E-01   4.000000E-01   4.000000E-01   4.000000E-01   4.000000E-01   4.000000E-01   4.000000E-01   4.000000E-01   4.000000E-01   4.000000E-01   4.000000E-01   4.000000E-01   4.000000E-01   4.000000E-01   4.000000E-01   4.000000E-01   4.000000E-01   4.000000E-01   4.000000E-01   4.000000E-01   4.000000E-01   4.000000E-01   4.000000E-01   4.000000E-01   4.000000E-01   4.000000E-01   4.000000E-01   4.000000E-01   4.000000E-01   4.000000E-01   4.000000E-01   4.000000E-01   4.000000E-01   4.000000E-01   4.000000E-01   4.000000E-01   4.000000E-01   4.000000E-01   4.000000E-01   4.000000E-01   4.000000E-01   4.000000E-01   4.000000E-01   4.000000E-01   4.000000E-01   4.000000E-01   4.000000E-01   4.000000E-01   4.000000E-01   4.000000E-01   4.000000E-01   4.000000E-01   4.000000E-01   4.000000E-01   4.000000E-01   4.000000E-01   4.000000E-01   4.000000E-01   4.000000E-01   4.000000E-01   4.000000E-01   4.000000E-01   4.000000E-01   4.000000E-01   4.000000E-01   4.000000E-01   4.000000E-01   4.000000E-01   4.000000E-01   4.000000E-01   4.000000E-01   4.000000E-01   4.000000E-01   4.000000E-01   4.000000E-01   4.000000E-01   4.000000E-01   4.000000E-01   4.000000E-01   4.000000E-01   4.000000E-01   4.000000E-01   4.000000E-01   4.000000E-01   4.000000E-01   4.000000E-01   4.000000E-01   4.000000E-01   4.000000E-01   4.000000E-01   4.000000E-01   4.000000E-01   4.000000E-01   4.000000E-01   4.000000E-01   4.000000E-01   4.000000E-01   4.000000E-01   4.000000E-01   4.000000E-01   4.000000E-01   4.000000E-01   4.000000E-01   4.000000E-01   4.000000E-01   4.000000E-01   4.000000E-01   4.000000E-01   4.000000E-01   4.000000E-01   4.000000E-01   4.000000E-01   4.000000E-01   4.000000E-01   4.000000E-01   4.000000E-01   4.000000E-01   4.000000E-01   4.000000E-01   4.000000E-01   4.000000E-01   4.000000E-01   4.000000E-01   4.000000E-01   4.000000E-01   4.000000E-01   4.000000E-01   4.000000E-01   4.000000E-01   4.000000E-01   4.000000E-01   4.000000E-01   4.000000E-01   4.000000E-01   4.000000E-01   4.000000E-01   4.000000E-01   4.000000E-01   4.000000E-01   4.000000E-01   4.000000E-01   4.000000E-01   4.000000E-01   4.000000E-01   4.000000E-01   4.000000E-01   4.000000E-01   4.000000E-01   4.000000E-01   4.000000E-01   4.000000E-01   4.000000E-01   4.000000E-01   4.000000E-01   4.000000E-01   4.000000E-01   4.000000E-01   4.000000E-01   4.000000E-01   4.000000E-01   4.000000E-01   4.000000E-01   4.000000E-01   4.000000E-01   4.000000E-01   4.000000E-01   4.000000E-01   4.000000E-01   4.000000E-01   4.000000E-01   4.000000E-01   4.000000E-01   4.000000E-01   4.000000E-01   4.000000E-01   4.000000E-01   4.000000E-01   4.000000E-01   4.000000E-01   4.000000E-01   4.000000E-01   4.000000E-01   4.000000E-01   4.000000E-01   4.000000E-01   4.000000E-01   4.000000E-01   4.000000E-01   4.000000E-01   4.000000E-01   4.000000E-01   4.000000E-01   4.000000E-01   4.000000E-01   4.000000E-01   4.000000E-01   4.000000E-01   4.000000E-01   4.000000E-01   4.000000E-01   4.000000E-01   4.000000E-01   4.000000E-01   4.000000E-01   4.000000E-01   4.000000E-01   4.000000E-01   4.000000E-01   4.000000E-01   4.000000E-01   4.000000E-01   4.000000E-01   4.000000E-01   4.000000E-01   4.000000E-01   4.000000E-01   4.000000E-01   4.000000E-01   4.000000E-01   4.000000E-01   4.000000E-01   4.000000E-01   4.000000E-01   4.000000E-01   4.000000E-01   4.000000E-01   4.000000E-01   4.000000E-01   4.000000E-01   4.000000E-01   4.000000E-01   4.000000E-01   4.000000E-01   4.000000E-01   4.000000E-01   4.000000E-01   4.000000E-01   4.000000E-01   4.000000E-01   4.000000E-01   4.000000E-01   4.000000E-01   4.000000E-01   4.000000E-01   4.000000E-01   4.000000E-01   4.000000E-01   4.000000E-01   4.000000E-01   4.000000E-01   4.000000E-01   4.000000E-01   4.000000E-01   4.000000E-01   4.000000E-01   4.000000E-01   4.000000E-01   4.000000E-01   4.000000E-01   4.000000E-01   4.000000E-01   4.000000E-01   4.000000E-01   4.000000E-01   4.000000E-01   4.000000E-01   4.000000E-01   4.000000E-01   4.000000E-01   4.000000E-01   4.000000E-01   4.000000E-01   4.000000E-01   4.000000E-01   4.000000E-01   4.000000E-01   4.000000E-01   4.000000E-01   4.000000E-01   4.000000E-01   4.000000E-01   4.000000E-01   4.000000E-01   4.000000E-01   4.000000E-01   4.000000E-01   4.000000E-01   4.000000E-01   4.000000E-01   4.000000E-01   4.000000E-01   4.000000E-01   4.000000E-01   4.000000E-01   4.000000E-01   4.000000E-01   4.000000E-01   4.000000E-01   4.000000E-01   4.000000E-01   4.000000E-01   4.000000E-01   4.000000E-01   4.000000E-01   4.000000E-01   4.000000E-01   4.000000E-01   4.000000E-01   4.000000E-01   4.000000E-01   4.000000E-01   4.000000E-01   4.000000E-01   4.000000E-01   4.000000E-01   4.000000E-01   4.000000E-01   4.000000E-01   4.000000E-01   4.000000E-01   4.000000E-01   4.000000E-01   4.000000E-01   4.000000E-01   4.000000E-01   4.000000E-01   4.000000E-01   4.000000E-01   4.000000E-01   4.000000E-01   4.000000E-01   4.000000E-01   4.000000E-01   4.000000E-01   4.000000E-01   4.000000E-01   4.000000E-01   4.000000E-01   4.000000E-01   4.000000E-01   4.000000E-01   4.000000E-01   4.000000E-01   4.000000E-01   4.000000E-01   4.000000E-01   4.000000E-01   4.000000E-01   4.000000E-01   4.000000E-01   4.000000E-01   4.000000E-01   4.000000E-01   4.000000E-01   4.000000E-01   4.000000E-01   4.000000E-01   4.000000E-01   4.000000E-01   4.000000E-01   4.000000E-01   4.000000E-01   4.000000E-01   4.000000E-01   4.000000E-01   4.000000E-01   4.000000E-01   4.000000E-01   4.000000E-01   4.000000E-01   4.000000E-01   4.000000E-01   4.000000E-01   4.000000E-01   4.000000E-01   4.000000E-01   4.000000E-01   4.000000E-01   4.000000E-01   4.000000E-01   4.000000E-01   4.000000E-01   4.000000E-01   4.000000E-01   4.000000E-01   4.000000E-01   4.000000E-01   4.000000E-01   4.000000E-01   4.000000E-01   4.000000E-01   4.000000E-01   4.000000E-01   4.000000E-01   4.000000E-01   4.000000E-01   4.000000E-01   4.000000E-01   4.000000E-01   4.000000E-01   4.000000E-01   4.000000E-01   4.000000E-01   4.000000E-01   4.000000E-01   4.000000E-01   4.000000E-01   4.000000E-01   4.000000E-01   4.000000E-01   4.000000E-01   4.000000E-01   4.000000E-01   4.000000E-01   4.000000E-01   4.000000E-01   4.000000E-01   4.000000E-01   4.000000E-01   4.000000E-01   4.000000E-01   4.000000E-01   4.000000E-01   4.000000E-01   4.000000E-01   4.000000E-01   4.000000E-01   4.000000E-01   4.000000E-01   4.000000E-01   4.000000E-01   4.000000E-01   4.000000E-01   4.000000E-01   4.000000E-01   4.000000E-01   4.000000E-01   4.000000E-01   4.000000E-01   4.000000E-01   4.000000E-01   4.000000E-01   4.000000E-01   4.000000E-01   4.000000E-01   4.000000E-01   4.000000E-01   4.000000E-01   4.000000E-01   4.000000E-01   4.000000E-01   4.000000E-01   4.000000E-01   4.000000E-01   4.000000E-01   4.000000E-01   4.000000E-01   4.000000E-01   4.000000E-01   4.000000E-01   4.000000E-01   4.000000E-01   4.000000E-01   4.000000E-01   4.000000E-01   4.000000E-01   4.000000E-01   4.000000E-01   4.000000E-01   4.000000E-01   4.000000E-01   4.000000E-01   4.000000E-01   4.000000E-01   4.000000E-01   4.000000E-01   4.000000E-01   4.000000E-01   4.000000E-01   4.000000E-01   4.000000E-01   4.000000E-01   4.000000E-01   4.000000E-01   4.000000E-01   4.000000E-01   4.000000E-01   4.000000E-01   4.000000E-01   4.000000E-01   4.000000E-01   4.000000E-01   4.000000E-01   4.000000E-01   4.000000E-01   4.000000E-01   4.000000E-01   4.000000E-01   4.000000E-01   4.000000E-01   4.000000E-01   4.000000E-01   4.000000E-01   4.000000E-01   4.000000E-01   4.000000E-01   4.000000E-01   4.000000E-01   4.000000E-01   4.000000E-01   4.000000E-01   4.000000E-01   4.000000E-01   4.000000E-01   4.000000E-01   4.000000E-01   4.000000E-01   4.000000E-01   4.000000E-01   4.000000E-01   4.000000E-01   4.000000E-01   4.000000E-01   4.000000E-01   4.000000E-01   4.000000E-01   4.000000E-01   4.000000E-01   4.000000E-01   4.000000E-01   4.000000E-01   4.000000E-01   4.000000E-01   4.000000E-01   4.000000E-01   4.000000E-01   4.000000E-01   4.000000E-01   4.000000E-01   4.000000E-01   4.000000E-01   4.000000E-01   4.000000E-01   4.000000E-01   4.000000E-01   4.000000E-01   4.000000E-01   4.000000E-01   4.000000E-01   4.000000E-01   4.000000E-01   4.000000E-01   4.000000E-01   4.000000E-01   4.000000E-01   4.000000E-01   4.000000E-01   4.000000E-01   4.000000E-01   4.000000E-01   4.000000E-01   4.000000E-01   4.000000E-01   4.000000E-01   4.000000E-01   4.000000E-01   4.000000E-01   4.000000E-01   4.000000E-01   4.000000E-01   4.000000E-01   4.000000E-01   4.000000E-01   4.000000E-01   4.000000E-01   4.000000E-01   4.000000E-01   4.000000E-01   4.000000E-01   4.000000E-01   4.000000E-01   4.000000E-01   4.000000E-01   4.000000E-01   4.000000E-01   4.000000E-01   4.000000E-01   4.000000E-01   4.000000E-01   4.000000E-01   4.000000E-01   4.000000E-01   4.000000E-01   4.000000E-01   4.000000E-01   4.000000E-01   4.000000E-01   4.000000E-01   4.000000E-01   4.000000E-01   4.000000E-01   4.000000E-01   4.000000E-01   4.000000E-01   4.000000E-01   4.000000E-01   4.000000E-01   4.000000E-01   4.000000E-01   4.000000E-01   4.000000E-01   4.000000E-01   4.000000E-01   4.000000E-01   4.000000E-01   4.000000E-01   4.000000E-01   4.000000E-01   4.000000E-01   4.000000E-01   4.000000E-01   4.000000E-01   4.000000E-01   4.000000E-01   4.000000E-01   4.000000E-01   4.000000E-01   4.000000E-01   4.000000E-01   4.000000E-01   4.000000E-01   4.000000E-01   4.000000E-01   4.000000E-01   4.000000E-01   4.000000E-01   4.000000E-01   4.000000E-01   4.000000E-01   4.000000E-01   4.000000E-01   4.000000E-01   4.000000E-01   4.000000E-01   4.000000E-01   4.000000E-01   4.000000E-01   4.000000E-01   4.000000E-01   4.000000E-01   4.000000E-01   4.000000E-01   4.000000E-01   4.000000E-01   4.000000E-01   4.000000E-01   4.000000E-01   4.000000E-01   4.000000E-01   4.000000E-01   4.000000E-01   4.000000E-01   4.000000E-01   4.000000E-01   4.000000E-01   4.000000E-01   4.000000E-01   4.000000E-01   4.000000E-01   4.000000E-01   4.000000E-01   4.000000E-01   4.000000E-01   4.000000E-01   4.000000E-01   4.000000E-01   4.000000E-01   4.000000E-01   4.000000E-01   4.000000E-01   4.000000E-01   4.000000E-01   4.000000E-01   4.000000E-01   4.000000E-01   4.000000E-01   4.000000E-01   4.000000E-01   4.000000E-01   4.000000E-01   4.000000E-01   4.000000E-01   4.000000E-01   4.000000E-01   4.000000E-01   4.000000E-01   4.000000E-01   4.000000E-01   4.000000E-01   4.000000E-01   4.000000E-01   4.000000E-01   4.000000E-01   4.000000E-01   4.000000E-01   4.000000E-01   4.000000E-01   4.000000E-01   4.000000E-01   4.000000E-01   4.000000E-01   4.000000E-01   4.000000E-01   4.000000E-01   4.000000E-01   4.000000E-01   4.000000E-01   4.000000E-01   4.000000E-01   4.000000E-01   4.000000E-01   4.000000E-01   4.000000E-01   4.000000E-01   4.000000E-01   4.000000E-01   4.000000E-01   4.000000E-01   4.000000E-01   4.000000E-01   4.000000E-01   4.000000E-01   4.000000E-01   4.000000E-01   4.000000E-01   4.000000E-01   4.000000E-01   4.000000E-01   4.000000E-01   4.000000E-01   4.000000E-01   4.000000E-01   4.000000E-01   4.000000E-01   4.000000E-01   4.000000E-01   4.000000E-01   4.000000E-01   4.000000E-01   4.000000E-01   4.000000E-01   4.000000E-01   4.000000E-01   4.000000E-01   4.000000E-01   4.000000E-01   4.000000E-01   4.000000E-01   4.000000E-01   4.000000E-01   4.000000E-01   4.000000E-01   4.000000E-01   4.000000E-01   4.000000E-01   4.000000E-01   4.000000E-01   4.000000E-01   4.000000E-01   4.000000E-01   4.000000E-01   4.000000E-01   4.000000E-01   4.000000E-01   4.000000E-01   4.000000E-01   4.000000E-01   4.000000E-01   4.000000E-01   4.000000E-01   4.000000E-01   4.000000E-01   4.000000E-01   4.000000E-01   4.000000E-01   4.000000E-01   4.000000E-01   4.000000E-01   4.000000E-01   4.000000E-01   4.000000E-01   4.000000E-01   4.000000E-01   4.000000E-01   4.000000E-01   4.000000E-01   4.000000E-01   4.000000E-01   4.000000E-01   4.000000E-01   4.000000E-01   4.000000E-01   4.000000E-01   4.000000E-01   4.000000E-01   4.000000E-01   4.000000E-01   4.000000E-01   4.000000E-01   4.000000E-01   4.000000E-01   4.000000E-01   4.000000E-01   4.000000E-01   4.000000E-01   4.000000E-01   4.000000E-01   4.000000E-01   4.000000E-01   4.000000E-01   4.000000E-01   4.000000E-01   4.000000E-01   4.000000E-01   4.000000E-01   4.000000E-01   4.000000E-01   4.000000E-01   4.000000E-01   4.000000E-01   4.000000E-01   4.000000E-01   4.000000E-01   4.000000E-01   4.000000E-01   4.000000E-01   4.000000E-01   