<?xml version="1.0"?>
<!-- Time =  6.0058362602810267E-01s -->
<VTKFile type="PolyData" version="0.1" byte_order="LittleEndian">
<PolyData>
<Piece NumberOfPoints="0000002400" NumberOfVerts="0" NumberOfLines="0" NumberOfStrips="0" NumberOfPolys="0">
<Points>
<DataArray type="Float32" Name="Position" NumberOfComponents="3" format="ascii">
  2.112686E-01   2.918376E-01   2.934484E-01   1.516539E+00   2.002650E-01   5.137885E-01   2.484279E+00   2.085464E-01   2.157024E-01   2.931076E+00   1.998017E-01   1.976727E-01   3.357305E+00   2.008033E-01   2.097698E-01   4.351950E+00   1.995185E-01   1.987710E-01   4.777338E+00   2.004441E-01   2.066321E-01   5.617353E+00   2.005108E-01   2.284490E-01   6.029559E+00   1.986426E-01   2.236576E-01   6.583466E+00   2.161899E-01   2.084041E-01   7.430314E+00   1.067299E+00   7.810259E-01   7.855973E+00   1.381351E+00   3.892961E-01   6.753512E+00   9.379928E-01   5.881367E-01   8.029396E-01   1.230752E+01   2.122046E+00   7.002568E+00   1.397120E+00   3.466406E-01   7.689581E+00   4.054121E+00   7.023959E-01   3.614569E+00   1.151077E+00   3.265144E+00   5.852677E+00   9.971243E-01   6.916909E-01   7.434740E+00   2.079478E+00   1.963624E+00   6.324002E+00   2.465143E+00   2.374360E+00   1.397291E+01   3.745005E+00   2.757375E+00   7.616916E+00   3.954822E-01   4.554137E-01   8.538017E+00   2.863036E+00   9.615161E-01   8.645861E+00   1.343164E+00   6.808236E-01   8.210578E+00   2.045740E-01   2.492396E-01   9.080215E+00   2.815243E-01   2.027233E-01   9.491005E+00   2.080253E-01   2.232449E-01   1.044467E+01   2.048889E-01   2.024155E-01   1.134114E+01   2.005525E-01   2.003215E-01   1.175584E+01   2.030503E-01   2.053412E-01   1.215822E+01   2.005329E-01   1.995466E-01   1.297836E+01   1.997011E-01   3.044358E-01   1.338353E+01   2.283062E-01   2.500671E-01   1.328911E+01   8.793660E-01   3.087508E-01   1.419878E+01   2.021190E-01   2.169083E-01   2.667928E-01   5.028262E-01   7.731622E-01   1.114199E+00   2.261745E-01   6.357606E-01   2.046815E+00   2.200320E-01   2.361997E-01   3.036114E+00   8.761279E-01   5.144976E-01   3.264046E+00   5.762550E-01   3.236507E-01   3.942463E+00   1.986667E-01   2.030348E-01   4.573311E+00   2.149511E-01   5.561776E-01   5.205615E+00   2.083467E-01   2.024490E-01   5.831545E+00   5.476757E-01   2.093235E-01   6.290592E+00   5.058977E-01   2.112845E-01   7.057069E+00   7.090155E-01   4.166253E-01   7.302236E+00   1.055453E+00   2.331491E-01   9.288054E+00   1.063632E+00   4.042573E-01   6.443520E+00   5.670415E-01   6.280721E-01   9.500959E+00   4.364703E+00   1.810764E+00   6.350651E+00   8.555272E-01   1.281022E+00   4.554707E+00   6.736291E+00   1.607875E+00   1.669223E+00   7.542567E-01   2.057795E+00   4.592973E+00   1.877564E+00   1.050478E+00   5.210837E+00   8.090270E-01   1.795502E+00   8.674314E+00   4.565298E-01   8.164698E-01   9.226284E+00   3.496608E+00   2.337076E+00   9.011190E+00   9.478964E-01   2.796529E+00   7.820720E+00   9.719293E-01   3.774439E-01   8.638060E+00   1.999981E-01   2.004980E-01   9.474140E+00   6.096217E-01   2.891543E-01   1.014542E+01   5.617068E-01   2.025897E-01   1.088698E+01   2.006037E-01   2.041982E-01   1.160216E+01   5.858027E-01   2.111365E-01   1.203402E+01   5.842141E-01   2.158954E-01   1.255279E+01   2.269892E-01   2.509226E-01   1.292779E+01   5.604251E-01   5.910391E-01   1.354636E+01   5.908813E-01   7.565852E-01   1.445947E+01   6.781806E-01   2.976041E-01   1.468081E+01   2.768532E-01   2.928685E-01   6.565582E-01   3.461153E-01   3.044263E-01   1.055924E+00   2.102144E-01   2.083558E-01   1.795701E+00   5.942315E-01   3.259068E-01   3.288679E+00   9.047489E-01   1.281273E+00   3.904907E+00   8.889104E-01   2.775856E-01   3.657053E+00   4.800306E-01   2.048049E-01   4.151886E+00   5.457425E-01   2.235647E-01   4.987576E+00   3.181176E-01   5.483719E-01   4.567386E+00   5.415010E-01   2.300128E-01   5.286563E+00   7.705104E-01   6.560650E-01   6.713440E+00   7.985553E-01   9.727038E-01   7.913556E+00   1.769913E+00   2.334542E-01   8.249601E+00   2.029202E+00   1.084717E+00   2.382046E+00   1.416264E+01   2.037449E+00   5.986809E+00   2.235124E+01   3.631940E+00   5.534007E+00   5.416645E-01   1.171172E+00   8.322351E+00   2.004605E+00   2.870798E-01   6.482776E+00   4.554489E+00   1.881209E+00   6.286829E+00   3.922069E+00   4.262326E+00   8.177763E+00   5.373591E-01   1.327187E+00   1.060943E+01   5.363078E-01   2.437917E+00   6.687507E+00   5.988256E-01   2.655739E-01   6.252438E+00   1.018504E+00   6.690261E-01   8.553376E+00   7.612627E-01   5.486912E-01   8.752411E+00   6.061121E-01   2.073531E-01   1.013038E+01   1.202612E+00   6.567107E-01   1.047831E+01   7.957987E-01   2.019209E-01   1.111441E+01   5.311003E-01   2.160018E-01   1.189530E+01   5.930163E-01   6.184584E-01   1.220835E+01   9.039060E-01   5.007551E-01   1.270707E+01   6.109508E-01   2.333946E-01   1.260136E+01   2.660964E+00   1.252915E+00   1.395688E+01   5.510029E-01   3.902960E-01   1.479176E+01   1.204741E+00   1.624401E+00   4.532098E-01   2.247425E-01   1.254379E+00   2.280934E+00   2.048796E-01   5.600205E-01   2.699198E+00   2.033938E-01   6.169215E-01   3.137016E+00   1.981974E-01   5.914671E-01   3.654196E+00   1.999744E-01   5.447721E-01   4.169409E+00   2.001703E-01   5.551375E-01   4.898381E+00   2.007805E-01   9.254880E-01   5.842257E+00   2.006646E-01   6.222896E-01   6.317568E+00   1.998257E-01   5.131139E-01   7.176818E+00   1.564715E+00   1.200842E+00   7.622176E+00   1.639183E+00   8.645026E-01   4.304103E+00   1.162629E+01   2.696820E+00   1.094287E+01   1.475393E+01   4.304317E+00   6.333454E+00   9.077674E-01   2.780725E+00   1.466381E+01   7.028278E+00   1.386893E+00   4.488163E+00   3.019143E+01   1.839332E+00   6.572737E+00   1.498263E+00   2.262532E+00   1.423001E+00   1.732071E+01   3.493235E-01   8.224200E+00   2.531211E+01   2.462484E+00   3.841969E+00   1.852358E+01   4.521165E+00   6.574841E+00   3.102749E+01   1.932851E+00   5.181554E-01   2.942543E+00   1.685162E+00   1.121665E+01   5.875872E-01   4.250168E+00   5.293279E+00   5.035872E+00   1.821934E+00   7.973087E+00   6.726314E+00   1.381929E+00   7.716623E+00   1.075468E+00   1.402880E+00   9.416516E+00   2.103140E-01   7.070540E-01   1.011991E+01   2.156216E-01   7.235870E-01   1.060005E+01   2.025009E-01   5.762863E-01   1.131962E+01   2.042199E-01   8.668147E-01   1.193573E+01   2.049722E-01   9.758246E-01   1.233060E+01   1.998513E-01   7.945474E-01   1.267005E+01   2.061031E-01   1.030778E+00   1.368451E+01   2.037256E-01   6.444908E-01   1.471936E+01   2.053278E-01   1.264048E+00   7.078016E-01   2.307585E-01   9.299300E-01   9.216848E-01   2.052146E-01   1.264073E+00   2.149489E+00   7.747472E-01   2.111580E-01   3.165624E+00   8.119659E-01   9.032630E-01   4.110492E+00   8.836796E-01   7.775236E-01   3.956631E+00   5.398094E-01   6.472637E-01   4.496593E+00   1.983907E-01   9.503306E-01   5.407005E+00   2.111139E-01   5.708361E-01   6.031406E+00   5.671360E-01   5.675827E-01   6.876181E+00   5.179011E-01   7.180190E-01   7.089203E+00   3.565793E+00   1.199386E+00   8.246079E+00   9.854090E+00   1.905981E+00   1.479458E+01   3.047901E+00   2.856713E+00   1.061275E+01   1.341179E+01   2.743513E+00   1.449051E+01   1.403371E+00   4.640013E+00   3.100746E+00   1.596447E+00   9.741669E-01   4.234560E+00   5.301186E-01   9.602924E-01   5.398850E+00   5.570454E-01   2.094235E-01   1.468226E+01   1.240057E+00   1.014815E+00   8.005751E+00   7.339723E-01   9.317699E-01   1.468561E+01   9.159486E-01   2.583785E+00   3.947939E+00   2.345051E+01   3.113460E+00   1.086823E+01   1.017850E+01   5.299177E-01   4.714304E+00   6.264694E+00   1.325824E+00   7.996925E+00   2.349282E-01   7.539806E-01   8.467946E+00   2.013811E-01   5.800537E-01   9.799730E+00   5.064536E-01   6.501851E-01   1.022518E+01   6.936213E-01   7.488205E-01   1.102295E+01   2.021967E-01   5.874693E-01   1.158488E+01   2.035142E-01   5.672940E-01   1.198647E+01   2.017745E-01   5.754160E-01   1.269923E+01   2.117313E-01   6.323564E-01   1.328192E+01   2.397693E-01   7.009321E-01   1.434028E+01   1.957828E-01   9.762042E-01   1.480091E+01   2.095950E-01   6.940477E-01   1.787676E+00   5.139997E-01   1.253832E+00   1.713432E+00   5.612739E-01   7.516674E-01   2.749564E+00   5.266887E-01   3.577524E-01   3.423852E+00   5.493209E-01   7.233455E-01   3.765973E+00   5.273173E-01   1.082114E+00   4.628323E+00   8.985580E-01   1.160200E+00   4.375028E+00   6.125320E-01   5.934896E-01   5.240599E+00   4.343044E-01   8.680798E-01   5.629717E+00   5.408698E-01   6.411507E-01   6.895014E+00   2.034157E+00   1.256070E+00   7.310743E+00   2.182175E+00   1.027369E+00   9.081015E+00   4.292513E+00   1.568668E+00   4.269202E+00   1.144731E+00   4.857939E-01   1.365393E+01   1.381926E+01   1.639792E+00   4.931625E+00   9.022828E-01   1.475138E+00   7.718883E+00   3.815367E+00   1.102565E+00   5.226277E+00   8.660687E-01   2.744114E+00   6.113756E+00   5.344782E-01   1.347129E+00   8.529211E+00   1.169429E+01   1.502295E+00   1.293681E+01   4.953940E+00   8.806145E-01   1.292456E+01   1.030948E+01   9.484166E-01   1.055665E+01   5.733836E-01   3.454683E+00   1.233053E+01   1.374629E+01   1.482937E+00   1.101022E+01   1.600100E+00   4.371051E+00   8.822659E+00   5.963284E+00   4.937146E-01   8.208815E+00   6.015943E-01   3.208010E-01   8.987570E+00   2.162053E-01   5.932056E-01   9.620417E+00   5.465241E-01   1.070825E+00   1.074008E+01   5.322236E-01   3.873488E-01   1.130222E+01   5.065358E-01   5.957202E-01   1.162466E+01   4.876639E-01   8.950566E-01   1.238142E+01   4.859473E-01   5.048154E-01   1.177497E+01   2.078275E+00   1.105280E+00   1.278604E+01   5.714397E-01   1.373000E+00   1.472231E+01   5.997022E-01   1.086358E+00   2.131601E-01   4.460011E-01   1.583018E+00   1.894042E+00   2.005616E-01   6.445230E-01   2.545630E+00   3.202326E-01   9.759648E-01   3.410770E+00   1.979773E-01   9.514253E-01   4.224256E+00   2.051696E-01   1.260500E+00   5.193563E+00   2.015741E-01  
[...]
<PointData Scalars="Diameter" Vectors="Velocity">
<DataArray type="Float32" Name="Diameter" format="ascii">
  4.000000E-01   4.000000E-01   4.000000E-01   4.000000E-01   4.000000E-01   4.000000E-01   4.000000E-01   4.000000E-01   4.000000E-01   4.000000E-01   4.000000E-01   4.000000E-01   4.000000E-01   4.000000E-01   4.000000E-01   4.000000E-01   4.000000E-01   4.000000E-01   4.000000E-01   4.000000E-01   4.000000E-01   4.000000E-01   4.000000E-01   4.000000E-01   4.000000E-01   4.000000E-01   4.000000E-01   4.000000E-01   4.000000E-01   4.000000E-01   4.000000E-01   4.000000E-01   4.000000E-01   4.000000E-01   4.000000E-01   4.000000E-01   4.000000E-01   4.000000E-01   4.000000E-01   4.000000E-01   4.000000E-01   4.000000E-01   4.000000E-01   4.000000E-01   4.000000E-01   4.000000E-01   4.000000E-01   4.000000E-01   4.000000E-01   4.000000E-01   4.000000E-01   4.000000E-01   4.000000E-01   4.000000E-01   4.000000E-01   4.000000E-01   4.000000E-01   4.000000E-01   4.000000E-01   4.000000E-01   4.000000E-01   4.000000E-01   4.000000E-01   4.000000E-01   4.000000E-01   4.000000E-01   4.000000E-01   4.000000E-01   4.000000E-01   4.000000E-01   4.000000E-01   4.000000E-01   4.000000E-01   4.000000E-01   4.000000E-01   4.000000E-01   4.000000E-01   4.000000E-01   4.000000E-01   4.000000E-01   4.000000E-01   4.000000E-01   4.000000E-01   4.000000E-01   4.000000E-01   4.000000E-01   4.000000E-01   4.000000E-01   4.000000E-01   4.000000E-01   4.000000E-01   4.000000E-01   4.000000E-01   4.000000E-01   4.000000E-01   4.000000E-01   4.000000E-01   4.000000E-01   4.000000E-01   4.000000E-01   4.000000E-01   4.000000E-01   4.000000E-01   4.000000E-01   4.000000E-01   4.000000E-01   4.000000E-01   4.000000E-01   4.000000E-01   4.000000E-01   4.000000E-01   4.000000E-01   4.000000E-01   4.000000E-01   4.000000E-01   4.000000E-01   4.000000E-01   4.000000E-01   4.000000E-01   4.000000E-01   4.000000E-01   4.000000E-01   4.000000E-01   4.000000E-01   4.000000E-01   4.000000E-01   4.000000E-01   4.000000E-01   4.000000E-01   4.000000E-01   4.000000E-01   4.000000E-01   4.000000E-01   4.000000E-01   4.000000E-01   4.000000E-01   4.000000E-01   4.000000E-01   4.000000E-01   4.000000E-01   4.000000E-01   4.000000E-01   4.000000E-01   4.000000E-01   4.000000E-01   4.000000E-01   4.000000E-01   4.000000E-01   4.000000E-01   4.000000E-01   4.000000E-01   4.000000E-01   4.000000E-01   4.000000E-01   4.000000E-01   4.000000E-01   4.000000E-01   4.000000E-01   4.000000E-01   4.000000E-01   4.000000E-01   4.000000E-01   4.000000E-01   4.000000E-01   4.000000E-01   4.000000E-01   4.000000E-01   4.000000E-01   4.000000E-01   4.000000E-01   4.000000E-01   4.000000E-01   4.000000E-01   4.000000E-01   4.000000E-01   4.000000E-01   4.000000E-01   4.000000E-01   4.000000E-01   4.000000E-01   4.000000E-01   4.000000E-01   4.000000E-01   4.000000E-01   4.000000E-01   4.000000E-01   4.000000E-01   4.000000E-01   4.000000E-01   4.000000E-01   4.000000E-01   4.000000E-01   4.000000E-01   4.000000E-01   4.000000E-01   4.000000E-01   4.000000E-01   4.000000E-01   4.000000E-01   4.000000E-01   4.000000E-01   4.000000E-01   4.000000E-01   4.000000E-01   4.000000E-01   4.000000E-01   4.000000E-01   4.000000E-01   4.000000E-01   4.000000E-01   4.000000E-01   4.000000E-01   4.000000E-01   4.000000E-01   4.000000E-01   4.000000E-01   4.000000E-01   4.000000E-01   4.000000E-01   4.000000E-01   4.000000E-01   4.000000E-01   4.000000E-01   4.000000E-01   4.000000E-01   4.000000E-01   4.000000E-01   4.000000E-01   4.000000E-01   4.000000E-01   4.000000E-01   4.000000E-01   4.000000E-01   4.000000E-01   4.000000E-01   4.000000E-01   4.000000E-01   4.000000E-01   4.000000E-01   4.000000E-01   4.000000E-01   4.000000E-01   4.000000E-01   4.000000E-01   4.000000E-01   4.000000E-01   4.000000E-01   4.000000E-01   4.000000E-01   4.000000E-01   4.000000E-01   4.000000E-01   4.000000E-01   4.000000E-01   4.000000E-01   4.000000E-01   4.000000E-01   4.000000E-01   4.000000E-01   4.000000E-01   4.000000E-01   4.000000E-01   4.000000E-01   4.000000E-01   4.000000E-01   4.000000E-01   4.000000E-01   4.000000E-01   4.000000E-01   4.000000E-01   4.000000E-01   4.000000E-01   4.000000E-01   4.000000E-01   4.000000E-01   4.000000E-01   4.000000E-01   4.000000E-01   4.000000E-01   4.000000E-01   4.000000E-01   4.000000E-01   4.000000E-01   4.000000E-01   4.000000E-01   4.000000E-01   4.000000E-01   4.000000E-01   4.000000E-01   4.000000E-01   4.000000E-01   4.000000E-01   4.000000E-01   4.000000E-01   4.000000E-01   4.000000E-01   4.000000E-01   4.000000E-01   4.000000E-01   4.000000E-01   4.000000E-01   4.000000E-01   4.000000E-01   4.000000E-01   4.000000E-01   4.000000E-01   4.000000E-01   4.000000E-01   4.000000E-01   4.000000E-01   4.000000E-01   4.000000E-01   4.000000E-01   4.000000E-01   4.000000E-01   4.000000E-01   4.000000E-01   4.000000E-01   4.000000E-01   4.000000E-01   4.000000E-01   4.000000E-01   4.000000E-01   4.000000E-01   4.000000E-01   4.000000E-01   4.000000E-01   4.000000E-01   4.000000E-01   4.000000E-01   4.000000E-01   4.000000E-01   4.000000E-01   4.000000E-01   4.000000E-01   4.000000E-01   4.000000E-01   4.000000E-01   4.000000E-01   4.000000E-01   4.000000E-01   4.000000E-01   4.000000E-01   4.000000E-01   4.000000E-01   4.000000E-01   4.000000E-01   4.000000E-01   4.000000E-01   4.000000E-01   4.000000E-01   4.000000E-01   4.000000E-01   4.000000E-01   4.000000E-01   4.000000E-01   4.000000E-01   4.000000E-01   4.000000E-01   4.000000E-01   4.000000E-01   4.000000E-01   4.000000E-01   4.000000E-01   4.000000E-01   4.000000E-01   4.000000E-01   4.000000E-01   4.000000E-01   4.000000E-01   4.000000E-01   4.000000E-01   4.000000E-01   4.000000E-01   4.000000E-01   4.000000E-01   4.000000E-01   4.000000E-01   4.000000E-01   4.000000E-01   4.000000E-01   4.000000E-01   4.000000E-01   4.000000E-01   4.000000E-01   4.000000E-01   4.000000E-01   4.000000E-01   4.000000E-01   4.000000E-01   4.000000E-01   4.000000E-01   4.000000E-01   4.000000E-01   4.000000E-01   4.000000E-01   4.000000E-01   4.000000E-01   4.000000E-01   4.000000E-01   4.000000E-01   4.000000E-01   4.000000E-01   4.000000E-01   4.000000E-01   4.000000E-01   4.000000E-01   4.000000E-01   4.000000E-01   4.000000E-01   4.000000E-01   4.000000E-01   4.000000E-01   4.000000E-01   4.000000E-01   4.000000E-01   4.000000E-01   4.000000E-01   4.000000E-01   4.000000E-01   4.000000E-01   4.000000E-01   4.000000E-01   4.000000E-01   4.000000E-01   4.000000E-01   4.000000E-01   4.000000E-01   4.000000E-01   4.000000E-01   4.000000E-01   4.000000E-01   4.000000E-01   4.000000E-01   4.000000E-01   4.000000E-01   4.000000E-01   4.000000E-01   4.000000E-01   4.000000E-01   4.000000E-01   4.000000E-01   4.000000E-01   4.000000E-01   4.000000E-01   4.000000E-01   4.000000E-01   4.000000E-01   4.000000E-01   4.000000E-01   4.000000E-01   4.000000E-01   4.000000E-01   4.000000E-01   4.000000E-01   4.000000E-01   4.000000E-01   4.000000E-01   4.000000E-01   4.000000E-01   4.000000E-01   4.000000E-01   4.000000E-01   4.000000E-01   4.000000E-01   4.000000E-01   4.000000E-01   4.000000E-01   4.000000E-01   4.000000E-01   4.000000E-01   4.000000E-01   4.000000E-01   4.000000E-01   4.000000E-01   4.000000E-01   4.000000E-01   4.000000E-01   4.000000E-01   4.000000E-01   4.000000E-01   4.000000E-01   4.000000E-01   4.000000E-01   4.000000E-01   4.000000E-01   4.000000E-01   4.000000E-01   4.000000E-01   4.000000E-01   4.000000E-01   4.000000E-01   4.000000E-01   4.000000E-01   4.000000E-01   4.000000E-01   4.000000E-01   4.000000E-01   4.000000E-01   4.000000E-01   4.000000E-01   4.000000E-01   4.000000E-01   4.000000E-01   4.000000E-01   4.000000E-01   4.000000E-01   4.000000E-01   4.000000E-01   4.000000E-01   4.000000E-01   4.000000E-01   4.000000E-01   4.000000E-01   4.000000E-01   4.000000E-01   4.000000E-01   4.000000E-01   4.000000E-01   4.000000E-01   4.000000E-01   4.000000E-01   4.000000E-01   4.000000E-01   4.000000E-01   4.000000E-01   4.000000E-01   4.000000E-01   4.000000E-01   4.000000E-01   4.000000E-01   4.000000E-01   4.000000E-01   4.000000E-01   4.000000E-01   4.000000E-01   4.000000E-01   4.000000E-01   4.000000E-01   4.000000E-01   4.000000E-01   4.000000E-01   4.000000E-01   4.000000E-01   4.000000E-01   4.000000E-01   4.000000E-01   4.000000E-01   4.000000E-01   4.000000E-01   4.000000E-01   4.000000E-01   4.000000E-01   4.000000E-01   4.000000E-01   4.000000E-01   4.000000E-01   4.000000E-01   4.000000E-01   4.000000E-01   4.000000E-01   4.000000E-01   4.000000E-01   4.000000E-01   4.000000E-01   4.000000E-01   4.000000E-01   4.000000E-01   4.000000E-01   4.000000E-01   4.000000E-01   4.000000E-01   4.000000E-01   4.000000E-01   4.000000E-01   4.000000E-01   4.000000E-01   4.000000E-01   4.000000E-01   4.000000E-01   4.000000E-01   4.000000E-01   4.000000E-01   4.000000E-01   4.000000E-01   4.000000E-01   4.000000E-01   4.000000E-01   4.000000E-01   4.000000E-01   4.000000E-01   4.000000E-01   4.000000E-01   4.000000E-01   4.000000E-01   4.000000E-01   4.000000E-01   4.000000E-01   4.000000E-01   4.000000E-01   4.000000E-01   4.000000E-01   4.000000E-01   4.000000E-01   4.000000E-01   4.000000E-01   4.000000E-01   4.000000E-01   4.000000E-01   4.000000E-01   4.000000E-01   4.000000E-01   4.000000E-01   4.000000E-01   4.000000E-01   4.000000E-01   4.000000E-01   4.000000E-01   4.000000E-01   4.000000E-01   4.000000E-01   4.000000E-01   4.000000E-01   4.000000E-01   4.000000E-01   4.000000E-01   4.000000E-01   4.000000E-01   4.000000E-01   4.000000E-01   4.000000E-01   4.000000E-01   4.000000E-01   4.000000E-01   4.000000E-01   4.000000E-01   4.000000E-01   4.000000E-01   4.000000E-01   4.000000E-01   4.000000E-01   4.000000E-01   4.000000E-01   4.000000E-01   4.000000E-01   4.000000E-01   4.000000E-01   4.000000E-01   4.000000E-01   4.000000E-01   4.000000E-01   4.000000E-01   4.000000E-01   4.000000E-01   4.000000E-01   4.000000E-01   4.000000E-01   4.000000E-01   4.000000E-01   4.000000E-01   4.000000E-01   4.000000E-01   4.000000E-01   4.000000E-01   4.000000E-01   4.000000E-01   4.000000E-01   4.000000E-01   4.000000E-01   4.000000E-01   4.000000E-01   4.000000E-01   4.000000E-01   4.000000E-01   4.000000E-01   4.000000E-01   4.000000E-01   4.000000E-01   4.000000E-01   4.000000E-01   4.000000E-01   4.000000E-01   4.000000E-01   4.000000E-01   4.000000E-01   4.000000E-01   4.000000E-01   4.000000E-01   4.000000E-01   4.000000E-01   4.000000E-01   4.000000E-01   4.000000E-01   4.000000E-01   4.000000E-01   4.000000E-01   4.000000E-01   4.000000E-01   4.000000E-01   4.000000E-01   4.000000E-01   4.000000E-01   4.000000E-01   4.000000E-01   4.000000E-01   4.000000E-01   4.000000E-01   4.000000E-01   4.000000E-01   4.000000E-01   4.000000E-01   4.000000E-01   4.000000E-01   4.000000E-01   4.000000E-01   4.000000E-01   4.000000E-01   4.000000E-01   4.000000E-01   4.000000E-01   4.000000E-01   4.000000E-01   4.000000E-01   4.000000E-01   4.000000E-01   4.000000E-01   4.000000E-01   4.000000E-01   4.000000E-01   4.000000E-01   4.000000E-01   4.000000E-01   4.000000E-01   4.000000E-01   4.000000E-01   4.000000E-01   4.000000E-01   4.000000E-01   4.000000E-01   4.000000E-01   4.000000E-01   4.000000E-01   4.000000E-01   4.000000E-01   4.000000E-01   4.000000E-01   4.000000E-01   4.000000E-01   4.000000E-01   4.000000E-01   4.000000E-01   4.000000E-01   4.000000E-01   4.000000E-01   4.000000E-01   4.000000E-01   4.000000E-01   4.000000E-01   4.000000E-01   4.000000E-01   4.000000E-01   4.000000E-01   4.000000E-01   4.000000E-01   4.000000E-01   4.000000E-01   4.000000E-01   4.000000E-01   4.000000E-01   4.000000E-01   4.000000E-01   4.000000E-01   4.000000E-01   4.000000E-01   4.000000E-01   4.000000E-01   4.000000E-01   4.000000E-01   4.000000E-01   4.000000E-01   4.000000E-01   4.000000E-01   4.000000E-01   4.000000E-01   4.000000E-01   4.000000E-01   4.000000E-01   4.000000E-01   4.000000E-01   4.000000E-01   4.000000E-01   4.000000E-01   4.000000E-01   4.000000E-01   4.000000E-01   4.000000E-01   4.000000E-01   4.000000E-01   4.000000E-01   4.000000E-01   4.000000E-01   4.000000E-01   4.000000E-01   4.000000E-01   4.000000E-01   4.000000E-01   4.000000E-01   4.000000E-01   4.000000E-01   4.000000E-01   4.000000E-01   4.000000E-01   4.000000E-01   4.000000E-01   4.000000E-01   4.000000E-01   4.000000E-01   4.000000E-01   4.000000E-01   4.000000E-01   4.000000E-01   4.000000E-01   4.000000E-01   4.000000E-01   4.000000E-01   4.000000E-01   4.000000E-01   4.000000E-01   4.000000E-01   4.000000E-01   4.000000E-01   4.000000E-01   4.000000E-01   4.000000E-01   4.000000E-01   4.000000E-01   4.000000E-01   4.000000E-01   4.000000E-01   4.000000E-01   4.000000E-01   4.000000E-01   4.000000E-01   4.000000E-01   4.000000E-01   4.000000E-01   4.000000E-01   4.000000E-01   4.000000E-01   4.000000E-01   4.000000E-01   4.000000E-01   4.000000E-01   4.000000E-01   4.000000E-01   4.000000E-01   4.000000E-01   4.000000E-01   4.000000E-01   4.000000E-01   4.000000E-01   4.000000E-01   4.000000E-01   4.000000E-01   4.000000E-01   4.000000E-01   4.000000E-01   4.000000E-01   4.000000E-01   4.000000E-01   4.000000E-01   4.000000E-01   4.000000E-01   4.000000E-01   4.000000E-01   4.000000E-01   4.000000E-01   4.000000E-01   4.000000E-01   4.000000E-01   4.000000E-01   4.000000E-01   4.000000E-01   4.000000E-01   4.000000E-01   4.000000E-01   4.000000E-01   4.000000E-01   4.000000E-01   4.000000E-01   4.000000E-01   4.000000E-01   4.000000E-01   4.000000E-01   4.000000E-01   4.000000E-01   4.000000E-01   4.000000E-01   4.000000E-01   4.000000E-01   4.000000E-01   4.000000E-01   4.000000E-01   4.000000E-01   4.000000E-01   4.000000E-01   4.000000E-01   4.000000E-01   4.000000E-01   4.000000E-01   4.000000E-01   4.000000E-01   4.000000E-01   4.000000E-01   4.000000E-01   4.000000E-01   4.000000E-01   4.000000E-01   4.000000E-01   4.000000E-01   4.000000E-01   4.000000E-01   4.000000E-01   4.000000E-01   4.000000E-01   4.000000E-01   4.000000E-01   4.000000E-01   4.000000E-01   4.000000E-01   4.000000E-01   4.000000E-01   4.000000E-01   4.000000E-01   4.000000E-01   4.000000E-01   4.000000E-01   4.000000E-01   4.000000E-01   4.000000E-01   4.000000E-01   4.000000E-01   4.000000E-01   4.000000E-01   4.000000E-01   4.000000E-01   4.000000E-01   4.000000E-01   4.000000E-01   4.000000E-01   4.000000E-01   4.000000E-01   4.000000E-01   4.000000E-01   4.000000E-01   4.000000E-01   4.000000E-01   4.000000E-01   4.000000E-01   4.000000E-01   4.000000E-01   4.000000E-01   4.000000E-01   4.000000E-01   4.000000E-01   4.000000E-01   4.000000E-01   4.000000E-01   4.000000E-01   4.000000E-01   4.000000E-01   4.000000E-01   4.000000E-01   4.000000E-01   4.000000E-01   4.000000E-01   4.000000E-01   4.000000E-01   4.000000E-01   4.000000E-01   4.000000E-01   4.000000E-01   4.000000E-01   4.000000E-01   4.000000E-01   4.000000E-01   4.000000E-01   4.000000E-01   4.000000E-01   4.000000E-01   4.000000E-01   4.000000E-01   4.000000E-01   4.000000E-01   4.000000E-01   4.000000E-01   4.000000E-01   4.000000E-01   4.000000E-01   4.000000E-01   4.000000E-01   4.000000E-01   4.000000E-01   4.000000E-01   4.000000E-01   4.000000E-01   4.000000E-01   4.000000E-01   4.000000E-01   4.000000E-01   4.000000E-01   4.000000E-01   4.000000E-01   4.000000E-01   4.000000E-01   4.000000E-01   4.000000E-01   4.000000E-01   4.000000E-01   4.000000E-01   4.000000E-01   4.000000E-01   4.000000E-01   4.000000E-01   4.000000E-01   4.000000E-01   4.000000E-01   4.000000E-01   4.000000E-01   4.000000E-01   4.000000E-01   4.000000E-01   4.000000E-01   4.000000E-01   4.000000E-01   4.000000E-01   4.000000E-01   4.000000E-01   4.000000E-01   4.000000E-01   4.000000E-01   4.000000E-01   4.000000E-01   4.000000E-01   4.000000E-01   4.000000E-01   4.000000E-01   4.000000E-01   4.000000E-01   4.000000E-01   4.000000E-01   4.000000E-01   4.000000E-01   4.000000E-01   4.000000E-01   4.000000E-01   4.000000E-01   4.000000E-01   4.000000E-01   4.000000E-01   4.000000E-01   4.000000E-01   4.000000E-01   4.000000E-01   4.000000E-01   4.000000E-01   4.000000E-01   4.000000E-01   4.000000E-01   4.000000E-01   4.000000E-01   4.000000E-01   4.000000E-01   4.000000E-01   4.000000E-01   4.000000E-01   4.000000E-01   4.000000E-01   4.000000E-01   4.000000E-01   4.000000E-01   4.000000E-01   4.000000E-01   4.000000E-01   4.000000E-01   4.000000E-01   4.000000E-01   4.000000E-01   4.000000E-01   4.000000E-01   4.000000E-01   4.000000E-01   4.000000E-01   4.000000E-01   4.000000E-01   4.000000E-01   4.000000E-01   4.000000E-01   4.000000E-01   4.000000E-01   4.000000E-01   4.000000E-01   4.000000E-01   4.000000E-01   4.000000E-01   4.000000E-01   4.000000E-01   4.000000E-01   4.000000E-01   4.000000E-01   4.000000E-01   4.000000E-01   4.000000E-01   4.000000E-01   4.000000E-01   4.000000E-01   4.000000E-01   4.000000E-01   4.000000E-01   4.000000E-01   4.000000E-01   4.000000E-01   4.000000E-01   4.000000E-01   4.000000E-01   4.000000E-01   4.000000E-01   4.000000E-01   4.000000E-01   4.000000E-01   4.000000E-01   4.000000E-01   4.000000E-01   4.000000E-01   4.000000E-01   4.000000E-01   4.000000E-01   4.000000E-01   4.000000E-01   4.000000E-01   4.000000E-01   4.000000E-01   4.000000E-01   4.000000E-01   4.000000E-01   4.000000E-01   4.000000E-01   4.000000E-01   4.000000E-01   4.000000E-01   4.000000E-01   4.000000E-01   4.000000E-01   4.000000E-01   4.000000E-01   4.000000E-01   4.000000E-01   4.000000E-01   4.000000E-01   4.000000E-01   4.000000E-01   4.000000E-01   4.000000E-01   4.000000E-01   4.000000E-01   4.000000E-01   4.000000E-01   4.000000E-01   4.000000E-01   4.000000E-01   4.000000E-01   4.000000E-01   4.000000E-01   4.000000E-01   4.000000E-01   4.000000E-01   4.000000E-01   4.000000E-01   4.000000E-01   4.000000E-01   4.000000E-01   4.000000E-01   4.000000E-01   4.000000E-01   4.000000E-01   4.000000E-01   4.000000E-01   4.000000E-01   4.000000E-01   4.000000E-01   4.000000E-01   4.000000E-01   4.000000E-01   4.000000E-01   4.000000E-01   4.000000E-01   4.000000E-01   4.000000E-01   4.000000E-01   4.000000E-01   4.000000E-01   4.000000E-01   4.000000E-01   4.000000E-01   4.000000E-01   4.000000E-01   4.000000E-01   4.000000E-01   4.000000E-01   4.000000E-01   4.000000E-01   4.000000E-01   4.000000E-01   4.000000E-01   4.000000E-01   4.000000E-01   4.000000E-01   4.000000E-01   4.000000E-01   4.000000E-01   4.000000E-01   4.000000E-01   4.000000E-01   4.000000E-01   4.000000E-01   4.000000E-01   4.000000E-01   4.000000E-01   4.000000E-01   4.000000E-01   4.000000E-01   4.000000E-01   4.000000E-01   4.000000E-01   4.000000E-01   4.000000E-01   4.000000E-01   4.000000E-01   4.000000E-01   4.000000E-01   4.000000E-01   4.000000E-01   4.000000E-01   4.000000E-01   4.000000E-01   4.000000E-01   4.000000E-01   4.000000E-01   4.000000E-01   4.000000E-01   4.000000E-01   4.000000E-01   4.000000E-01   4.000000E-01   4.000000E-01   4.000000E-01   4.000000E-01   4.000000E-01   4.000000E-01   4.000000E-01   4.000000E-01   4.000000E-01   4.000000E-01   4.000000E-01   4.000000E-01   4.000000E-01   4.000000E-01   4.000000E-01   4.000000E-01   4.000000E-01   4.000000E-01   4.000000E-01   4.000000E-01   4.000000E-01   4.000000E-01   4.000000E-01   4.000000E-01   4.000000E-01   4.000000E-01   4.000000E-01   4.000000E-01   4.000000E-01   4.000000E-01   4.000000E-01   4.000000E-01   4.000000E-01   4.000000E-01   4.000000E-01   4.000000E-01   4.000000E-01   4.000000E-01   4.000000E-01   4.000000E-01   4.000000E-01   4.000000E-01   4.000000E-01   4.000000E-01   4.000000E-01   4.000000E-01   4.000000E-01   4.000000E-01   4.000000E-01   4.000000E-01   4.000000E-01   4.000000E-01   4.000000E-01   4.000000E-01   4.000000E-01   4.000000E-01   4.000000E-01   4.000000E-01   4.000000E-01   4.000000E-01   4.000000E-01   4.000000E-01   4.000000E-01   4.000000E-01   4.000000E-01   4.000000E-01   4.000000E-01   4.000000E-01   4.000000E-01   4.000000E-01   4.000000E-01   4.000000E-01   4.000000E-01   