<?xml version="1.0"?>
<!-- Time =  3.1003776260279197E+00s -->
<VTKFile type="PolyData" version="0.1" byte_order="LittleEndian">
<PolyData>
<Piece NumberOfPoints="0000002400" NumberOfVerts="0" NumberOfLines="0" NumberOfStrips="0" NumberOfPolys="0">
<Points>
<DataArray type="Float32" Name="Position" NumberOfComponents="3" format="ascii">
  5.460685E+00   1.994381E-01   2.915076E-01   1.477446E+01   1.089606E+01   5.653710E-01   1.323708E+01   1.054968E+01   3.043714E+00   5.811556E+00   1.995159E-01   2.034967E+00   1.085011E+00   5.644555E-01   2.670541E+00   7.947301E+00   4.170313E+00   2.660411E+00   6.576636E+00   2.207594E-01   2.133632E+00   1.739908E+00   1.967236E-01   2.311893E+00   7.578032E+00   3.075647E+00   4.431196E+00   3.425406E+00   2.011805E-01   4.046201E+00   9.355123E+00   1.120521E+01   3.496165E-01   6.582122E+00   4.029007E+00   1.053415E+00   1.286478E+00   1.108848E+01   1.983450E+00   7.481509E+00   3.898783E+00   1.504034E+00   1.071281E+01   9.937428E-01   1.251587E+00   6.633476E+00   1.725237E+01   2.042328E+00   1.115969E+01   9.719210E-01   1.958388E+00   1.899970E+00   2.647277E+00   4.913713E+00   1.052408E+01   2.740081E-01   1.671945E+00   3.183136E+00   8.355977E-01   4.062842E+00   1.385401E+01   5.483975E-01   3.112890E+00   8.613608E+00   3.300464E-01   4.974727E+00   6.666502E+00   6.642620E-01   4.461723E+00   4.306489E+00   8.438456E-01   4.163483E+00   6.115355E+00   5.278174E-01   8.397326E-01   5.180404E-01   3.728223E+00   1.892027E+00   4.125252E+00   2.245554E+00   2.307414E+00   7.972981E+00   7.464741E-01   4.232228E+00   5.789756E+00   3.529441E-01   2.405756E+00   2.920036E+00   1.257416E+00   3.315650E+00   6.406382E+00   1.168601E+01   4.357238E+00   1.266908E+01   2.563907E-01   1.997964E-01   2.511711E-01   8.730812E+00   4.556111E-01   1.689463E+00   2.599812E-01   4.576743E+00   7.557632E+00   6.660870E+00   2.374324E+00   7.539570E+00   7.626588E+00   1.375451E+00   1.406313E+01   9.217377E-01   1.834264E+00   2.306348E-01   7.321567E-01   2.870134E+00   4.638927E+00   5.917226E-01   1.774399E+00   4.623947E+00   1.153623E+01   2.990789E+00   1.332089E+01   4.719224E+00   2.225138E+00   3.609361E+00   5.583784E-01   3.771581E+00   9.390111E+00   8.806795E-01   1.534069E+00   2.474067E+00   5.501260E-01   6.387612E-01   4.929813E+00   5.182797E-01   8.494458E-01   7.884019E+00   1.248923E+00   4.459170E-01   1.597279E+00   8.101187E+00   4.102370E+00   1.434012E+01   1.052881E+00   4.228784E+00   6.224294E+00   3.596908E+00   1.768367E+00   7.073672E+00   9.751648E-01   4.725813E+00   6.489911E+00   1.974246E+01   2.664454E+00   9.770322E+00   7.556714E-01   4.880093E+00   7.772451E+00   1.100322E+00   2.004914E+00   2.895458E+00   5.100480E-01   1.038208E+00   9.355357E+00   7.390154E-01   3.451505E+00   1.392440E+01   3.090667E+00   2.177568E-01   2.082814E+00   1.499769E+00   1.602801E+00   7.473919E+00   1.234815E+00   2.967042E-01   1.086598E+01   3.885428E-01   2.762401E-01   1.012645E+01   1.342577E+00   2.602231E+00   3.191481E+00   1.436005E+01   3.210961E+00   1.305507E+01   1.471171E+00   2.493481E+00   5.882933E+00   1.992213E-01   2.087337E-01   2.557244E+00   2.908471E+00   2.331614E+00   5.832998E+00   8.625458E-01   4.121958E+00   2.875281E+00   5.659452E-01   2.486994E-01   5.780429E+00   3.461319E-01   5.655691E-01   1.286554E+01   7.297432E+00   2.656558E-01   1.324341E+01   5.082238E+00   4.654511E+00   1.402615E+00   1.196268E+00   1.187225E+00   4.491095E+00   1.565743E+01   2.938687E+00   1.457066E+01   2.679263E-01   4.618615E+00   7.794170E+00   4.755277E+00   4.808243E+00   4.655679E+00   4.551231E-01   1.135971E+00   1.291054E+01   5.097875E-01   4.827250E-01   2.090343E+00   8.944938E-01   6.597819E-01   9.719429E+00   1.092997E+00   1.105188E+00   6.328050E-01   6.017172E-01   2.195596E-01   8.488759E+00   4.145470E-01   2.853255E+00   2.209657E-01   6.612876E+00   1.608555E+00   7.393517E+00   5.963372E+00   1.037888E+00   4.044718E+00   4.650032E-01   4.440855E+00   1.098648E+01   3.329878E-01   1.450907E+00   4.021169E+00   8.924031E-01   4.736333E+00   3.339725E+00   2.007476E-01   3.649516E+00   1.433408E+00   1.830639E-01   3.722003E+00   2.821560E+00   1.601096E+00   2.672780E+00   1.607485E+00   5.399150E-01   2.463650E+00   2.830468E+00   1.749784E+01   3.785898E+00   2.468730E-01   4.726392E-01   2.230144E-01   3.016361E+00   6.880239E+00   2.331562E+00   6.368474E+00   1.137589E+01   3.495690E+00   4.914025E+00   7.393069E-01   3.809645E+00   3.368637E+00   8.889459E-01   5.166169E-01   4.647021E+00   8.588161E+00   2.234552E+00   1.201956E+01   1.187237E+01   2.759401E+00   4.630394E+00   6.080942E-01   3.072107E+00   5.863958E+00   1.292014E+00   3.414068E+00   4.705501E+00   4.542465E-01   5.152583E-01   3.088219E+00   1.892953E+00   4.141225E+00   2.544132E+00   2.682046E-01   3.564623E+00   7.272107E+00   2.473556E+00   1.972914E+00   6.530885E+00   1.180580E+00   4.469019E-01   1.973971E+00   5.415031E-01   4.422906E-01   2.520162E+00   1.122828E+00   3.546410E+00   7.806964E+00   9.355572E+00   3.111767E+00   3.596338E+00   5.155202E-01   5.804085E-01   7.921980E+00   2.709613E+00   1.294012E+00   4.657792E+00   1.992328E-01   8.258800E-01   1.991933E+00   1.041245E+00   1.276489E+00   8.083954E+00   1.885403E+00   3.893982E+00   1.332400E+01   2.199963E+00   2.551822E+00   5.982775E+00   8.250894E-01   2.869152E+00   5.298872E+00   9.849347E+00   1.524466E+00   1.814537E+00   2.275261E-01   1.653905E+00   3.968073E+00   1.234830E+01   6.630371E-01   1.671676E+00   2.205477E-01   9.965991E-01   1.305980E+01   3.685082E-01   3.774390E+00   8.114945E+00   5.656321E+00   2.314691E+00   1.364070E+01   1.289837E+00   3.835343E-01   4.632237E+00   5.890625E-01   4.177451E+00   1.455471E+01   2.777503E+00   9.447074E-01   4.140143E+00   2.045962E-01   2.664841E+00   6.615387E+00   4.150934E+00   4.372960E+00   2.272483E+00   1.419120E+00   3.002280E+00   1.199913E+00   2.455948E-01   2.915333E+00   1.424102E+01   3.936892E-01   6.857672E-01   6.000349E+00   1.993064E-01   3.712197E+00   3.255781E+00   7.946899E-01   3.648367E+00   2.664061E-01   2.015686E-01   3.803884E+00   8.136452E+00   2.824422E-01   3.248261E+00   4.828743E+00   1.394802E+00   1.445904E+00   4.901776E+00   8.141811E-01   4.638074E+00   4.196959E-01   2.521275E+00   2.270494E+00   1.338735E+01   2.105510E-01   1.200943E+00   3.293732E+00   9.820291E-01   1.195783E+00   1.358741E+01   2.259315E-01   1.951400E+00   4.071589E+00   1.988593E-01   8.161956E-01   5.146890E+00   8.880086E-01   3.365844E+00   1.236726E+01   6.564532E-01   1.262532E+00   7.177540E+00   2.173384E+00   1.707967E+00   1.448817E+00   2.041997E-01   2.002389E+00   1.178365E+01   7.031102E-01   4.898921E+00   3.150699E+00   1.060012E+01   4.382615E+00   7.833747E+00   2.320000E+00   1.335261E+00   5.815683E-01   1.021481E+00   3.968359E+00   1.211360E+01   8.298829E+00   2.973600E+00   6.848616E+00   1.298886E+00   2.362001E+00   8.781933E+00   3.381299E-01   2.120739E+00   2.667030E+00   1.622146E+01   3.150047E+00   8.901372E+00   2.694525E-01   9.322448E-01   4.314902E+00   1.978865E-01   1.180884E+00   4.628573E+00   4.952083E-01   2.187826E+00   3.249339E+00   1.976547E+01   2.651323E+00   1.440968E+00   5.279409E+00   4.658226E+00   4.258801E+00   1.188316E+00   2.525098E+00   1.474356E+01   1.743010E+00   1.211084E+00   2.600124E-01   1.067711E+01   7.109770E-01   1.108468E+01   1.330994E+00   1.202937E+00   7.232250E+00   8.033176E+00   1.361642E+00   2.605835E+00   1.274212E+00   4.387641E+00   8.326528E-01   9.691675E-01   2.745612E-01   4.102336E+00   1.973048E-01   2.036650E-01   6.205744E+00   1.989161E-01   1.951427E+00   6.343517E-01   2.051308E-01   2.523165E-01   1.216841E+01   2.700283E-01   2.281619E+00   7.380511E+00   1.263658E+00   1.906788E+00   4.541336E+00   2.019583E-01   2.909081E+00   1.295991E+01   1.879740E+00   5.280090E-01   1.165784E+00   5.263737E-01   1.507488E+00   3.961972E+00   9.631226E-01   4.349385E+00   1.925233E+00   5.278544E-01   9.055394E-01   5.611181E+00   1.138707E+00   1.811953E+00   1.641275E+00   8.169999E-01   2.771676E+00   9.798567E+00   7.722137E-01   4.162069E+00   8.173907E+00   9.828244E-01   2.371439E+00   4.574365E+00   1.596330E+01   3.419999E+00   5.460585E+00   8.916751E-01   3.605988E+00   5.809787E+00   7.509934E-01   2.372679E+00   5.420843E+00   1.500657E+01   3.718570E+00   1.235091E+01   3.137402E-01   3.084023E+00   2.668977E+00   2.112982E-01   2.145256E-01   5.770574E+00   2.872064E+00   4.841825E+00   6.587341E+00   4.181726E-01   2.987545E+00   8.166659E+00   6.911066E+00   3.391220E+00   9.411550E+00   5.175714E-01   1.927582E+00   6.711697E-01   1.946316E-01   4.269476E+00   1.027901E+01   2.998536E-01   2.122774E+00   1.042502E+01   1.653225E+00   2.304560E-01   6.508639E+00   2.067853E-01   3.349799E+00   6.590203E+00   9.071478E+00   3.390782E+00   6.326573E+00   2.005837E-01   2.030626E-01   1.947275E+00   9.741195E+00   1.604991E+00   4.986352E+00   5.411845E-01   2.413703E+00   5.043035E+00   2.445440E+01   2.082582E+00   6.619083E+00   8.552470E-01   9.410489E-01   2.980396E+00   5.466424E+00   2.427255E+00   3.908715E+00   1.299289E+00   4.579029E+00   5.940475E+00   5.429710E-01   4.465888E+00   1.115146E+01   2.098154E-01   1.014257E+00   7.737179E+00   4.906755E-01   4.877246E+00   1.022101E+01   3.616212E+00   1.565032E+00   7.099844E+00   1.267362E+00   3.762069E+00   7.625298E+00   1.906884E+01   4.289078E-01   3.075964E+00   8.830656E-01   2.390622E+00   1.307733E+01   9.983034E-01   4.931355E+00   1.319729E+01   5.765488E-01   1.126382E+00   1.388082E+01   6.549741E+00   2.954566E+00   4.648545E+00   8.136795E-01   2.035319E-01   2.820272E+00   6.543908E-01   3.118683E+00   5.004583E+00   2.108015E+01   1.256711E+00   3.003710E+00   6.248665E-01   2.094090E+00   6.382013E+00   2.825664E+00   2.854378E-01   4.711798E+00   5.709766E-01   3.468407E+00   5.615235E+00   5.382290E-01  
[...]
<PointData Scalars="Diameter" Vectors="Velocity">
<DataArray type="Float32" Name="Diameter" format="ascii">
  4.000000E-01   4.000000E-01   4.000000E-01   4.000000E-01   4.000000E-01   4.000000E-01   4.000000E-01   4.000000E-01   4.000000E-01   4.000000E-01   4.000000E-01   4.000000E-01   4.000000E-01   4.000000E-01   4.000000E-01   4.000000E-01   4.000000E-01   4.000000E-01   4.000000E-01   4.000000E-01   4.000000E-01   4.000000E-01   4.000000E-01   4.000000E-01   4.000000E-01   4.000000E-01   4.000000E-01   4.000000E-01   4.000000E-01   4.000000E-01   4.000000E-01   4.000000E-01   4.000000E-01   4.000000E-01   4.000000E-01   4.000000E-01   4.000000E-01   4.000000E-01   4.000000E-01   4.000000E-01   4.000000E-01   4.000000E-01   4.000000E-01   4.000000E-01   4.000000E-01   4.000000E-01   4.000000E-01   4.000000E-01   4.000000E-01   4.000000E-01   4.000000E-01   4.000000E-01   4.000000E-01   4.000000E-01   4.000000E-01   4.000000E-01   4.000000E-01   4.000000E-01   4.000000E-01   4.000000E-01   4.000000E-01   4.000000E-01   4.000000E-01   4.000000E-01   4.000000E-01   4.000000E-01   4.000000E-01   4.000000E-01   4.000000E-01   4.000000E-01   4.000000E-01   4.000000E-01   4.000000E-01   4.000000E-01   4.000000E-01   4.000000E-01   4.000000E-01   4.000000E-01   4.000000E-01   4.000000E-01   4.000000E-01   4.000000E-01   4.000000E-01   4.000000E-01   4.000000E-01   4.000000E-01   4.000000E-01   4.000000E-01   4.000000E-01   4.000000E-01   4.000000E-01   4.000000E-01   4.000000E-01   4.000000E-01   4.000000E-01   4.000000E-01   4.000000E-01   4.000000E-01   4.000000E-01   4.000000E-01   4.000000E-01   4.000000E-01   4.000000E-01   4.000000E-01   4.000000E-01   4.000000E-01   4.000000E-01   4.000000E-01   4.000000E-01   4.000000E-01   4.000000E-01   4.000000E-01   4.000000E-01   4.000000E-01   4.000000E-01   4.000000E-01   4.000000E-01   4.000000E-01   4.000000E-01   4.000000E-01   4.000000E-01   4.000000E-01   4.000000E-01   4.000000E-01   4.000000E-01   4.000000E-01   4.000000E-01   4.000000E-01   4.000000E-01   4.000000E-01   4.000000E-01   4.000000E-01   4.000000E-01   4.000000E-01   4.000000E-01   4.000000E-01   4.000000E-01   4.000000E-01   4.000000E-01   4.000000E-01   4.000000E-01   4.000000E-01   4.000000E-01   4.000000E-01   4.000000E-01   4.000000E-01   4.000000E-01   4.000000E-01   4.000000E-01   4.000000E-01   4.000000E-01   4.000000E-01   4.000000E-01   4.000000E-01   4.000000E-01   4.000000E-01   4.000000E-01   4.000000E-01   4.000000E-01   4.000000E-01   4.000000E-01   4.000000E-01   4.000000E-01   4.000000E-01   4.000000E-01   4.000000E-01   4.000000E-01   4.000000E-01   4.000000E-01   4.000000E-01   4.000000E-01   4.000000E-01   4.000000E-01   4.000000E-01   4.000000E-01   4.000000E-01   4.000000E-01   4.000000E-01   4.000000E-01   4.000000E-01   4.000000E-01   4.000000E-01   4.000000E-01   4.000000E-01   4.000000E-01   4.000000E-01   4.000000E-01   4.000000E-01   4.000000E-01   4.000000E-01   4.000000E-01   4.000000E-01   4.000000E-01   4.000000E-01   4.000000E-01   4.000000E-01   4.000000E-01   4.000000E-01   4.000000E-01   4.000000E-01   4.000000E-01   4.000000E-01   4.000000E-01   4.000000E-01   4.000000E-01   4.000000E-01   4.000000E-01   4.000000E-01   4.000000E-01   4.000000E-01   4.000000E-01   4.000000E-01   4.000000E-01   4.000000E-01   4.000000E-01   4.000000E-01   4.000000E-01   4.000000E-01   4.000000E-01   4.000000E-01   4.000000E-01   4.000000E-01   4.000000E-01   4.000000E-01   4.000000E-01   4.000000E-01   4.000000E-01   4.000000E-01   4.000000E-01   4.000000E-01   4.000000E-01   4.000000E-01   4.000000E-01   4.000000E-01   4.000000E-01   4.000000E-01   4.000000E-01   4.000000E-01   4.000000E-01   4.000000E-01   4.000000E-01   4.000000E-01   4.000000E-01   4.000000E-01   4.000000E-01   4.000000E-01   4.000000E-01   4.000000E-01   4.000000E-01   4.000000E-01   4.000000E-01   4.000000E-01   4.000000E-01   4.000000E-01   4.000000E-01   4.000000E-01   4.000000E-01   4.000000E-01   4.000000E-01   4.000000E-01   4.000000E-01   4.000000E-01   4.000000E-01   4.000000E-01   4.000000E-01   4.000000E-01   4.000000E-01   4.000000E-01   4.000000E-01   4.000000E-01   4.000000E-01   4.000000E-01   4.000000E-01   4.000000E-01   4.000000E-01   4.000000E-01   4.000000E-01   4.000000E-01   4.000000E-01   4.000000E-01   4.000000E-01   4.000000E-01   4.000000E-01   4.000000E-01   4.000000E-01   4.000000E-01   4.000000E-01   4.000000E-01   4.000000E-01   4.000000E-01   4.000000E-01   4.000000E-01   4.000000E-01   4.000000E-01   4.000000E-01   4.000000E-01   4.000000E-01   4.000000E-01   4.000000E-01   4.000000E-01   4.000000E-01   4.000000E-01   4.000000E-01   4.000000E-01   4.000000E-01   4.000000E-01   4.000000E-01   4.000000E-01   4.000000E-01   4.000000E-01   4.000000E-01   4.000000E-01   4.000000E-01   4.000000E-01   4.000000E-01   4.000000E-01   4.000000E-01   4.000000E-01   4.000000E-01   4.000000E-01   4.000000E-01   4.000000E-01   4.000000E-01   4.000000E-01   4.000000E-01   4.000000E-01   4.000000E-01   4.000000E-01   4.000000E-01   4.000000E-01   4.000000E-01   4.000000E-01   4.000000E-01   4.000000E-01   4.000000E-01   4.000000E-01   4.000000E-01   4.000000E-01   4.000000E-01   4.000000E-01   4.000000E-01   4.000000E-01   4.000000E-01   4.000000E-01   4.000000E-01   4.000000E-01   4.000000E-01   4.000000E-01   4.000000E-01   4.000000E-01   4.000000E-01   4.000000E-01   4.000000E-01   4.000000E-01   4.000000E-01   4.000000E-01   4.000000E-01   4.000000E-01   4.000000E-01   4.000000E-01   4.000000E-01   4.000000E-01   4.000000E-01   4.000000E-01   4.000000E-01   4.000000E-01   4.000000E-01   4.000000E-01   4.000000E-01   4.000000E-01   4.000000E-01   4.000000E-01   4.000000E-01   4.000000E-01   4.000000E-01   4.000000E-01   4.000000E-01   4.000000E-01   4.000000E-01   4.000000E-01   4.000000E-01   4.000000E-01   4.000000E-01   4.000000E-01   4.000000E-01   4.000000E-01   4.000000E-01   4.000000E-01   4.000000E-01   4.000000E-01   4.000000E-01   4.000000E-01   4.000000E-01   4.000000E-01   4.000000E-01   4.000000E-01   4.000000E-01   4.000000E-01   4.000000E-01   4.000000E-01   4.000000E-01   4.000000E-01   4.000000E-01   4.000000E-01   4.000000E-01   4.000000E-01   4.000000E-01   4.000000E-01   4.000000E-01   4.000000E-01   4.000000E-01   4.000000E-01   4.000000E-01   4.000000E-01   4.000000E-01   4.000000E-01   4.000000E-01   4.000000E-01   4.000000E-01   4.000000E-01   4.000000E-01   4.000000E-01   4.000000E-01   4.000000E-01   4.000000E-01   4.000000E-01   4.000000E-01   4.000000E-01   4.000000E-01   4.000000E-01   4.000000E-01   4.000000E-01   4.000000E-01   4.000000E-01   4.000000E-01   4.000000E-01   4.000000E-01   4.000000E-01   4.000000E-01   4.000000E-01   4.000000E-01   4.000000E-01   4.000000E-01   4.000000E-01   4.000000E-01   4.000000E-01   4.000000E-01   4.000000E-01   4.000000E-01   4.000000E-01   4.000000E-01   4.000000E-01   4.000000E-01   4.000000E-01   4.000000E-01   4.000000E-01   4.000000E-01   4.000000E-01   4.000000E-01   4.000000E-01   4.000000E-01   4.000000E-01   4.000000E-01   4.000000E-01   4.000000E-01   4.000000E-01   4.000000E-01   4.000000E-01   4.000000E-01   4.000000E-01   4.000000E-01   4.000000E-01   4.000000E-01   4.000000E-01   4.000000E-01   4.000000E-01   4.000000E-01   4.000000E-01   4.000000E-01   4.000000E-01   4.000000E-01   4.000000E-01   4.000000E-01   4.000000E-01   4.000000E-01   4.000000E-01   4.000000E-01   4.000000E-01   4.000000E-01   4.000000E-01   4.000000E-01   4.000000E-01   4.000000E-01   4.000000E-01   4.000000E-01   4.000000E-01   4.000000E-01   4.000000E-01   4.000000E-01   4.000000E-01   4.000000E-01   4.000000E-01   4.000000E-01   4.000000E-01   4.000000E-01   4.000000E-01   4.000000E-01   4.000000E-01   4.000000E-01   4.000000E-01   4.000000E-01   4.000000E-01   4.000000E-01   4.000000E-01   4.000000E-01   4.000000E-01   4.000000E-01   4.000000E-01   4.000000E-01   4.000000E-01   4.000000E-01   4.000000E-01   4.000000E-01   4.000000E-01   4.000000E-01   4.000000E-01   4.000000E-01   4.000000E-01   4.000000E-01   4.000000E-01   4.000000E-01   4.000000E-01   4.000000E-01   4.000000E-01   4.000000E-01   4.000000E-01   4.000000E-01   4.000000E-01   4.000000E-01   4.000000E-01   4.000000E-01   4.000000E-01   4.000000E-01   4.000000E-01   4.000000E-01   4.000000E-01   4.000000E-01   4.000000E-01   4.000000E-01   4.000000E-01   4.000000E-01   4.000000E-01   4.000000E-01   4.000000E-01   4.000000E-01   4.000000E-01   4.000000E-01   4.000000E-01   4.000000E-01   4.000000E-01   4.000000E-01   4.000000E-01   4.000000E-01   4.000000E-01   4.000000E-01   4.000000E-01   4.000000E-01   4.000000E-01   4.000000E-01   4.000000E-01   4.000000E-01   4.000000E-01   4.000000E-01   4.000000E-01   4.000000E-01   4.000000E-01   4.000000E-01   4.000000E-01   4.000000E-01   4.000000E-01   4.000000E-01   4.000000E-01   4.000000E-01   4.000000E-01   4.000000E-01   4.000000E-01   4.000000E-01   4.000000E-01   4.000000E-01   4.000000E-01   4.000000E-01   4.000000E-01   4.000000E-01   4.000000E-01   4.000000E-01   4.000000E-01   4.000000E-01   4.000000E-01   4.000000E-01   4.000000E-01   4.000000E-01   4.000000E-01   4.000000E-01   4.000000E-01   4.000000E-01   4.000000E-01   4.000000E-01   4.000000E-01   4.000000E-01   4.000000E-01   4.000000E-01   4.000000E-01   4.000000E-01   4.000000E-01   4.000000E-01   4.000000E-01   4.000000E-01   4.000000E-01   4.000000E-01   4.000000E-01   4.000000E-01   4.000000E-01   4.000000E-01   4.000000E-01   4.000000E-01   4.000000E-01   4.000000E-01   4.000000E-01   4.000000E-01   4.000000E-01   4.000000E-01   4.000000E-01   4.000000E-01   4.000000E-01   4.000000E-01   4.000000E-01   4.000000E-01   4.000000E-01   4.000000E-01   4.000000E-01   4.000000E-01   4.000000E-01   4.000000E-01   4.000000E-01   4.000000E-01   4.000000E-01   4.000000E-01   4.000000E-01   4.000000E-01   4.000000E-01   4.000000E-01   4.000000E-01   4.000000E-01   4.000000E-01   4.000000E-01   4.000000E-01   4.000000E-01   4.000000E-01   4.000000E-01   4.000000E-01   4.000000E-01   4.000000E-01   4.000000E-01   4.000000E-01   4.000000E-01   4.000000E-01   4.000000E-01   4.000000E-01   4.000000E-01   4.000000E-01   4.000000E-01   4.000000E-01   4.000000E-01   4.000000E-01   4.000000E-01   4.000000E-01   4.000000E-01   4.000000E-01   4.000000E-01   4.000000E-01   4.000000E-01   4.000000E-01   4.000000E-01   4.000000E-01   4.000000E-01   4.000000E-01   4.000000E-01   4.000000E-01   4.000000E-01   4.000000E-01   4.000000E-01   4.000000E-01   4.000000E-01   4.000000E-01   4.000000E-01   4.000000E-01   4.000000E-01   4.000000E-01   4.000000E-01   4.000000E-01   4.000000E-01   4.000000E-01   4.000000E-01   4.000000E-01   4.000000E-01   4.000000E-01   4.000000E-01   4.000000E-01   4.000000E-01   4.000000E-01   4.000000E-01   4.000000E-01   4.000000E-01   4.000000E-01   4.000000E-01   4.000000E-01   4.000000E-01   4.000000E-01   4.000000E-01   4.000000E-01   4.000000E-01   4.000000E-01   4.000000E-01   4.000000E-01   4.000000E-01   4.000000E-01   4.000000E-01   4.000000E-01   4.000000E-01   4.000000E-01   4.000000E-01   4.000000E-01   4.000000E-01   4.000000E-01   4.000000E-01   4.000000E-01   4.000000E-01   4.000000E-01   4.000000E-01   4.000000E-01   4.000000E-01   4.000000E-01   4.000000E-01   4.000000E-01   4.000000E-01   4.000000E-01   4.000000E-01   4.000000E-01   4.000000E-01   4.000000E-01   4.000000E-01   4.000000E-01   4.000000E-01   4.000000E-01   4.000000E-01   4.000000E-01   4.000000E-01   4.000000E-01   4.000000E-01   4.000000E-01   4.000000E-01   4.000000E-01   4.000000E-01   4.000000E-01   4.000000E-01   4.000000E-01   4.000000E-01   4.000000E-01   4.000000E-01   4.000000E-01   4.000000E-01   4.000000E-01   4.000000E-01   4.000000E-01   4.000000E-01   4.000000E-01   4.000000E-01   4.000000E-01   4.000000E-01   4.000000E-01   4.000000E-01   4.000000E-01   4.000000E-01   4.000000E-01   4.000000E-01   4.000000E-01   4.000000E-01   4.000000E-01   4.000000E-01   4.000000E-01   4.000000E-01   4.000000E-01   4.000000E-01   4.000000E-01   4.000000E-01   4.000000E-01   4.000000E-01   4.000000E-01   4.000000E-01   4.000000E-01   4.000000E-01   4.000000E-01   4.000000E-01   4.000000E-01   4.000000E-01   4.000000E-01   4.000000E-01   4.000000E-01   4.000000E-01   4.000000E-01   4.000000E-01   4.000000E-01   4.000000E-01   4.000000E-01   4.000000E-01   4.000000E-01   4.000000E-01   4.000000E-01   4.000000E-01   4.000000E-01   4.000000E-01   4.000000E-01   4.000000E-01   4.000000E-01   4.000000E-01   4.000000E-01   4.000000E-01   4.000000E-01   4.000000E-01   4.000000E-01   4.000000E-01   4.000000E-01   4.000000E-01   4.000000E-01   4.000000E-01   4.000000E-01   4.000000E-01   4.000000E-01   4.000000E-01   4.000000E-01   4.000000E-01   4.000000E-01   4.000000E-01   4.000000E-01   4.000000E-01   4.000000E-01   4.000000E-01   4.000000E-01   4.000000E-01   4.000000E-01   4.000000E-01   4.000000E-01   4.000000E-01   4.000000E-01   4.000000E-01   4.000000E-01   4.000000E-01   4.000000E-01   4.000000E-01   4.000000E-01   4.000000E-01   4.000000E-01   4.000000E-01   4.000000E-01   4.000000E-01   4.000000E-01   4.000000E-01   4.000000E-01   4.000000E-01   4.000000E-01   4.000000E-01   4.000000E-01   4.000000E-01   4.000000E-01   4.000000E-01   4.000000E-01   4.000000E-01   4.000000E-01   4.000000E-01   4.000000E-01   4.000000E-01   4.000000E-01   4.000000E-01   4.000000E-01   4.000000E-01   4.000000E-01   4.000000E-01   4.000000E-01   4.000000E-01   4.000000E-01   4.000000E-01   4.000000E-01   4.000000E-01   4.000000E-01   4.000000E-01   4.000000E-01   4.000000E-01   4.000000E-01   4.000000E-01   4.000000E-01   4.000000E-01   4.000000E-01   4.000000E-01   4.000000E-01   4.000000E-01   4.000000E-01   4.000000E-01   4.000000E-01   4.000000E-01   4.000000E-01   4.000000E-01   4.000000E-01   4.000000E-01   4.000000E-01   4.000000E-01   4.000000E-01   4.000000E-01   4.000000E-01   4.000000E-01   4.000000E-01   4.000000E-01   4.000000E-01   4.000000E-01   4.000000E-01   4.000000E-01   4.000000E-01   4.000000E-01   4.000000E-01   4.000000E-01   4.000000E-01   4.000000E-01   4.000000E-01   4.000000E-01   4.000000E-01   4.000000E-01   4.000000E-01   4.000000E-01   4.000000E-01   4.000000E-01   4.000000E-01   4.000000E-01   4.000000E-01   4.000000E-01   4.000000E-01   4.000000E-01   4.000000E-01   4.000000E-01   4.000000E-01   4.000000E-01   4.000000E-01   4.000000E-01   4.000000E-01   4.000000E-01   4.000000E-01   4.000000E-01   4.000000E-01   4.000000E-01   4.000000E-01   4.000000E-01   4.000000E-01   4.000000E-01   4.000000E-01   4.000000E-01   4.000000E-01   4.000000E-01   4.000000E-01   4.000000E-01   4.000000E-01   4.000000E-01   4.000000E-01   4.000000E-01   4.000000E-01   4.000000E-01   4.000000E-01   4.000000E-01   4.000000E-01   4.000000E-01   4.000000E-01   4.000000E-01   4.000000E-01   4.000000E-01   4.000000E-01   4.000000E-01   4.000000E-01   4.000000E-01   4.000000E-01   4.000000E-01   4.000000E-01   4.000000E-01   4.000000E-01   4.000000E-01   4.000000E-01   4.000000E-01   4.000000E-01   4.000000E-01   4.000000E-01   4.000000E-01   4.000000E-01   4.000000E-01   4.000000E-01   4.000000E-01   4.000000E-01   4.000000E-01   4.000000E-01   4.000000E-01   4.000000E-01   4.000000E-01   4.000000E-01   4.000000E-01   4.000000E-01   4.000000E-01   4.000000E-01   4.000000E-01   4.000000E-01   4.000000E-01   4.000000E-01   4.000000E-01   4.000000E-01   4.000000E-01   4.000000E-01   4.000000E-01   4.000000E-01   4.000000E-01   4.000000E-01   4.000000E-01   4.000000E-01   4.000000E-01   4.000000E-01   4.000000E-01   4.000000E-01   4.000000E-01   4.000000E-01   4.000000E-01   4.000000E-01   4.000000E-01   4.000000E-01   4.000000E-01   4.000000E-01   4.000000E-01   4.000000E-01   4.000000E-01   4.000000E-01   4.000000E-01   4.000000E-01   4.000000E-01   4.000000E-01   4.000000E-01   4.000000E-01   4.000000E-01   4.000000E-01   4.000000E-01   4.000000E-01   4.000000E-01   4.000000E-01   4.000000E-01   4.000000E-01   4.000000E-01   4.000000E-01   4.000000E-01   4.000000E-01   4.000000E-01   4.000000E-01   4.000000E-01   4.000000E-01   4.000000E-01   4.000000E-01   4.000000E-01   4.000000E-01   4.000000E-01   4.000000E-01   4.000000E-01   4.000000E-01   4.000000E-01   4.000000E-01   4.000000E-01   4.000000E-01   4.000000E-01   4.000000E-01   4.000000E-01   4.000000E-01   4.000000E-01   4.000000E-01   4.000000E-01   4.000000E-01   4.000000E-01   4.000000E-01   4.000000E-01   4.000000E-01   4.000000E-01   4.000000E-01   4.000000E-01   4.000000E-01   4.000000E-01   4.000000E-01   4.000000E-01   4.000000E-01   4.000000E-01   4.000000E-01   4.000000E-01   4.000000E-01   4.000000E-01   4.000000E-01   4.000000E-01   4.000000E-01   4.000000E-01   4.000000E-01   4.000000E-01   4.000000E-01   4.000000E-01   4.000000E-01   4.000000E-01   4.000000E-01   4.000000E-01   4.000000E-01   4.000000E-01   4.000000E-01   4.000000E-01   4.000000E-01   4.000000E-01   4.000000E-01   4.000000E-01   4.000000E-01   4.000000E-01   4.000000E-01   4.000000E-01   4.000000E-01   4.000000E-01   4.000000E-01   4.000000E-01   4.000000E-01   4.000000E-01   4.000000E-01   4.000000E-01   4.000000E-01   4.000000E-01   4.000000E-01   4.000000E-01   4.000000E-01   4.000000E-01   4.000000E-01   4.000000E-01   4.000000E-01   4.000000E-01   4.000000E-01   4.000000E-01   4.000000E-01   4.000000E-01   4.000000E-01   4.000000E-01   4.000000E-01   4.000000E-01   4.000000E-01   4.000000E-01   4.000000E-01   4.000000E-01   4.000000E-01   4.000000E-01   4.000000E-01   4.000000E-01   4.000000E-01   4.000000E-01   4.000000E-01   4.000000E-01   4.000000E-01   4.000000E-01   4.000000E-01   4.000000E-01   4.000000E-01   4.000000E-01   4.000000E-01   4.000000E-01   4.000000E-01   4.000000E-01   4.000000E-01   4.000000E-01   4.000000E-01   4.000000E-01   4.000000E-01   4.000000E-01   4.000000E-01   4.000000E-01   4.000000E-01   4.000000E-01   4.000000E-01   4.000000E-01   4.000000E-01   4.000000E-01   4.000000E-01   4.000000E-01   4.000000E-01   4.000000E-01   4.000000E-01   4.000000E-01   4.000000E-01   4.000000E-01   4.000000E-01   4.000000E-01   4.000000E-01   4.000000E-01   4.000000E-01   4.000000E-01   4.000000E-01   4.000000E-01   4.000000E-01   4.000000E-01   4.000000E-01   4.000000E-01   4.000000E-01   4.000000E-01   4.000000E-01   4.000000E-01   4.000000E-01   4.000000E-01   4.000000E-01   4.000000E-01   4.000000E-01   4.000000E-01   4.000000E-01   4.000000E-01   4.000000E-01   4.000000E-01   4.000000E-01   4.000000E-01   4.000000E-01   4.000000E-01   4.000000E-01   4.000000E-01   4.000000E-01   4.000000E-01   4.000000E-01   4.000000E-01   4.000000E-01   4.000000E-01   4.000000E-01   4.000000E-01   4.000000E-01   4.000000E-01   4.000000E-01   4.000000E-01   4.000000E-01   4.000000E-01   4.000000E-01   4.000000E-01   4.000000E-01   4.000000E-01   4.000000E-01   4.000000E-01   4.000000E-01   4.000000E-01   4.000000E-01   4.000000E-01   4.000000E-01   4.000000E-01   4.000000E-01   4.000000E-01   4.000000E-01   4.000000E-01   4.000000E-01   4.000000E-01   4.000000E-01   4.000000E-01   4.000000E-01   4.000000E-01   4.000000E-01   4.000000E-01   4.000000E-01   4.000000E-01   4.000000E-01   4.000000E-01   4.000000E-01   4.000000E-01   4.000000E-01   4.000000E-01   4.000000E-01   4.000000E-01   4.000000E-01   4.000000E-01   4.000000E-01   4.000000E-01   4.000000E-01   4.000000E-01   4.000000E-01   4.000000E-01   4.000000E-01   4.000000E-01   4.000000E-01   4.000000E-01   4.000000E-01   4.000000E-01   4.000000E-01   4.000000E-01   4.000000E-01   4.000000E-01   4.000000E-01   4.000000E-01   4.000000E-01   4.000000E-01   4.000000E-01   4.000000E-01   4.000000E-01   4.000000E-01   4.000000E-01   4.000000E-01   4.000000E-01   4.000000E-01   4.000000E-01   4.000000E-01   4.000000E-01   4.000000E-01   4.000000E-01   4.000000E-01   4.000000E-01   4.000000E-01   4.000000E-01   4.000000E-01   4.000000E-01   4.000000E-01   4.000000E-01   4.000000E-01   4.000000E-01   4.000000E-01   4.000000E-01   4.000000E-01   4.000000E-01   4.000000E-01   4.000000E-01   