<?xml version="1.0"?>
<!-- Time =  1.2006776260280814E+00s -->
<VTKFile type="PolyData" version="0.1" byte_order="LittleEndian">
<PolyData>
<Piece NumberOfPoints="0000002400" NumberOfVerts="0" NumberOfLines="0" NumberOfStrips="0" NumberOfPolys="0">
<Points>
<DataArray type="Float32" Name="Position" NumberOfComponents="3" format="ascii">
  6.883237E-01   1.943232E-01   2.211290E-01   3.886106E+00   2.022413E-01   5.209130E-01   5.109771E+00   2.014399E-01   2.015675E-01   6.206703E+00   2.039524E-01   2.248466E-01   7.411419E+00   4.488527E-01   2.136192E-01   9.372926E+00   8.455577E+00   1.637997E+00   4.756587E+00   1.692185E+00   4.722874E-01   3.880720E+00   1.089474E+00   1.808845E+00   1.394221E+01   3.521529E-01   2.415807E+00   7.809098E+00   3.868530E+00   1.283591E+00   4.535757E+00   4.538196E+00   4.672200E+00   7.956833E+00   4.073878E+00   4.862497E+00   6.621090E+00   6.063350E-01   5.564896E-01   6.222987E+00   1.677417E+01   3.025687E+00   2.221978E+00   2.093974E-01   1.358911E+00   6.230780E+00   4.673100E-01   5.621876E-01   6.228859E+00   4.488966E-01   3.634744E+00   5.465862E+00   4.932132E-01   2.184809E+00   4.085508E+00   5.188890E-01   2.512182E+00   5.671135E+00   2.122441E-01   1.950553E+00   6.927944E+00   6.730531E-01   4.508921E+00   1.275154E+01   5.367113E-01   1.856637E+00   1.287745E+01   6.374332E+00   3.943657E+00   1.200451E+01   1.532676E+01   1.516577E+00   1.304607E+01   1.066696E+01   2.682190E+00   8.727135E+00   4.978936E+00   1.143191E+00   4.478563E+00   8.265662E-01   1.327713E+00   6.047608E+00   7.530087E-01   1.930719E+00   1.044198E+01   1.087854E+01   5.026958E-01   1.090131E+01   8.574841E+00   1.651375E+00   5.600554E+00   4.670440E+00   5.638450E-01   8.146495E+00   1.090213E+01   1.429075E+00   6.163127E+00   4.383729E+00   2.186096E+00   5.434478E+00   7.133238E+00   6.945764E-01   8.077420E+00   3.806525E+00   2.001239E+00   7.121024E-01   2.281014E-01   1.749793E+00   1.953864E-01   2.497495E-01   1.180170E+00   4.700297E+00   2.026856E-01   2.047118E-01   5.672925E+00   5.228502E-01   5.175035E-01   5.956881E+00   5.218865E-01   2.028338E-01   6.651650E+00   9.722539E-01   3.034388E-01   1.032971E+01   9.280487E+00   2.196922E+00   1.478130E+00   5.251956E-01   1.210812E+00   6.313193E+00   1.786814E+01   3.123684E+00   3.550845E+00   2.105822E+00   3.860251E-01   5.426437E+00   9.473971E-01   1.536023E+00   1.218030E+01   1.000056E+01   4.606762E+00   3.869658E+00   1.059820E+00   3.734606E+00   5.672878E+00   8.101889E-01   2.048091E-01   4.266915E+00   8.822826E+00   4.533359E+00   4.075253E+00   3.749365E-01   3.473399E+00   8.224751E+00   5.193237E+00   2.930363E+00   8.421125E-01   9.592851E-01   2.278204E+00   5.938021E+00   2.034540E-01   1.308162E+00   4.534178E+00   1.226522E+01   3.829702E+00   3.699202E+00   3.247119E+00   1.239656E+00   1.189194E+01   1.210230E+01   4.108032E+00   7.197572E+00   1.067688E+00   2.039528E+00   1.129237E+01   5.765619E-01   2.881290E+00   9.659805E+00   2.064844E-01   4.438157E+00   1.308299E+01   1.054737E+01   2.273658E+00   5.552107E+00   1.325837E+00   1.967630E-01   7.967213E+00   1.119702E+00   6.603012E-01   9.257401E+00   1.297610E+01   3.565058E+00   8.724322E+00   5.210725E+00   1.789768E+00   1.680561E+00   2.191660E-01   6.111171E-01   1.922688E+00   2.080774E-01   2.104258E-01   3.244530E+00   2.004448E-01   3.305871E-01   3.066561E+00   7.024631E+00   2.225817E+00   6.057196E+00   1.187734E+00   8.048463E-01   7.387584E+00   1.506808E+00   4.948879E-01   6.974678E+00   1.629748E+00   3.742739E-01   1.818521E+00   1.044681E+01   1.198273E+00   5.372495E+00   6.935900E-01   1.232830E+00   3.425247E+00   5.684120E-01   1.530497E+00   4.531372E+00   9.519297E+00   1.885984E+00   1.113654E+01   1.009370E+00   3.145768E+00   8.201559E+00   4.189682E+00   1.375883E+00   5.605170E+00   5.397897E-01   3.513004E+00   6.229476E+00   8.229088E-01   2.364558E+00   4.704853E+00   9.798767E+00   2.409289E+00   3.349743E+00   1.675958E+01   7.245265E-01   4.464706E+00   2.030686E-01   1.682838E+00   7.105655E+00   7.469031E-01   3.975652E+00   1.064766E+01   1.050491E+00   2.027930E+00   4.171296E+00   4.890676E-01   1.092368E+00   3.527271E+00   4.234647E-01   2.021396E+00   4.235177E+00   4.491237E-01   2.097127E+00   1.086267E+01   1.973833E+01   1.380654E+00   2.588572E+00   1.966449E+00   2.032189E-01   8.028127E+00   7.276689E+00   3.700159E+00   3.847219E+00   1.064890E+01   2.944270E+00   9.974909E+00   1.172221E+01   7.883599E-01   9.219787E+00   7.070913E-01   1.698087E+00   8.804827E+00   2.463199E-01   2.450604E-01   1.022924E+01   3.277042E-01   2.153027E+00   2.455699E+00   3.324444E-01   1.779970E+00   5.417105E+00   2.041814E-01   5.252218E-01   5.912121E+00   2.011356E-01   5.364266E-01   7.387175E+00   6.798595E+00   1.798017E+00   6.796512E+00   6.893424E+00   1.090670E+00   2.082765E+00   9.311914E+00   5.906464E-01   2.193475E+00   6.805791E-01   2.456395E+00   4.025183E+00   9.019731E-01   6.688616E-01   4.992313E+00   3.712884E+00   1.172204E+00   1.512907E+00   2.275106E-01   2.396860E-01   7.447565E+00   5.410057E-01   4.400056E+00   1.214463E+01   2.627530E+00   2.247334E+00   9.315574E+00   9.220316E-01   4.997652E+00   2.238129E+00   2.430110E-01   3.321380E+00   4.703371E+00   7.456917E+00   2.713936E+00   5.908370E+00   2.095750E-01   4.145307E+00   9.469876E-01   1.572042E+00   3.080863E+00   7.686893E+00   1.110918E+01   8.617132E-01   5.356749E+00   2.057001E-01   3.540464E+00   6.398371E+00   3.126137E+00   2.631462E+00   2.555984E+00   8.244303E-01   9.131294E-01   3.918836E+00   5.882986E+00   1.677263E+00   9.650220E-01   6.638655E+00   9.248061E-01   8.071217E+00   1.070111E+01   3.029372E+00   4.892798E+00   8.223828E-01   3.517079E+00   8.532343E-01   1.444711E+00   1.657770E+00   1.346850E+01   8.905537E-01   2.358216E+00   8.970380E+00   2.434265E+01   2.247484E-01   6.692439E+00   3.381076E+00   1.298787E+00   9.313606E+00   3.329428E-01   3.660131E+00   1.218759E+01   2.161447E+00   2.464014E+00   1.490128E+00   2.141965E-01   2.413277E+00   6.994403E+00   2.768919E+00   3.182335E+00   5.983148E+00   8.101440E-01   5.595528E-01   8.950148E+00   4.818057E+00   1.544757E+00   1.966956E+00   1.061173E+01   1.751748E+00   5.585725E+00   1.153025E+01   2.210802E+00   3.770792E+00   5.478896E-01   4.802033E+00   4.909333E+00   1.039189E+01   1.375547E+00   3.995296E+00   4.861677E-01   4.181298E+00   4.689739E+00   9.109036E+00   3.910830E+00   6.422153E+00   1.851199E+01   1.257491E+00   1.070571E+01   2.571968E-01   4.944649E+00   8.125426E+00   2.085381E+00   3.409447E+00   7.876420E+00   2.259765E+00   1.313667E+00   1.268068E+01   4.546041E+00   3.901680E+00   5.431627E+00   1.623296E+01   1.083690E+00   8.753567E+00   7.952638E-01   2.797467E+00   4.542847E+00   9.742263E-01   1.857123E+00   5.584736E+00   2.028152E-01   4.411819E+00   6.878155E+00   3.699928E+00   2.734459E+00   4.930780E+00   2.016646E-01   1.712857E+00   3.644189E+00   1.990785E-01   4.117709E+00   4.835193E+00   1.056700E+01   3.926755E+00   2.917233E+00   3.238505E+00   4.385833E+00   6.411012E+00   5.561492E-01   2.105326E+00   5.743128E+00   1.396762E+01   4.784009E+00   8.258915E-01   1.285907E+01   2.639092E+00   5.286540E+00   8.637115E+00   2.580500E+00   5.585568E+00   1.936743E+00   2.329651E-01   8.412891E+00   4.776651E-01   1.533459E+00   8.457318E+00   7.737391E-01   4.058581E+00   1.389076E+01   4.560478E-01   1.057188E+00   4.813861E+00   2.003381E-01   9.469844E-01   1.995764E+00   1.411160E+00   8.313267E-01   5.680570E+00   2.015281E-01   2.079270E-01   4.741802E+00   3.744452E+00   1.822974E+00   5.896527E-01   6.529278E-01   2.688478E-01   4.853536E+00   8.445091E-01   1.181652E+00   6.544436E+00   7.469990E+00   1.638924E+00   1.687117E+00   1.976511E-01   1.495921E+00   8.956958E+00   1.320230E+00   4.149341E+00   1.152763E+01   1.714600E+01   4.804466E+00   4.882190E+00   1.028567E+00   1.554577E+00   6.407557E+00   7.188295E+00   2.974985E+00   3.208498E+00   2.453078E-01   3.368624E+00   8.549036E+00   9.040299E+00   4.581655E+00   5.270994E+00   1.997211E-01   9.431137E-01   6.968839E+00   4.168836E-01   6.933258E-01   1.471716E+01   6.950881E-01   8.597144E-01   8.384090E+00   3.584764E+00   1.024455E+00   8.259985E+00   5.956175E+00   2.314349E+00   5.335724E-01   2.702461E-01   4.677642E+00   7.379998E+00   3.122665E+00   2.137550E-01   4.006163E+00   1.059659E+01   1.317311E+00   2.410963E+00   3.256336E+00   3.800766E+00   2.313799E+00   1.275810E+01   5.396738E-01   8.114284E-01   1.765233E+00   1.028179E+00   5.712413E+00   1.845925E+01   9.995458E-01   2.224496E+00   1.169710E+00   1.958924E+00   8.260371E+00   3.361389E-01   5.097818E-01   1.466167E+01   2.031682E-01   3.349732E-01   1.201871E+00   2.901005E-01   1.955137E+00   4.600158E+00   3.023437E-01   5.814761E-01   6.836293E+00   2.066170E-01   1.463087E+00   5.876647E+00   4.872490E+00   1.160636E+00   1.226704E+01   4.070540E+00   2.824965E+00   6.218389E+00   2.681761E+00   5.163966E-01   2.025862E+00   2.070368E+00   2.364092E+00   6.957611E+00   1.366021E+00   7.623401E-01   7.687721E+00   1.301257E+00   2.765400E+00   1.049656E+00   2.247083E-01   1.061339E+00   7.709960E+00   1.235189E+00   3.586063E+00   3.545147E-01   7.453967E-01   6.249176E-01   5.010017E+00   1.650527E+01   3.329994E+00   7.473480E+00   1.111418E+00   4.038295E+00   3.096732E+00   7.998314E+00   1.758540E+00   1.262022E+01   4.818067E-01   2.302918E+00   1.935187E+00   5.247979E-01   1.411124E+00   4.997575E+00   4.483721E-01   2.161958E+00   9.554526E+00   3.043467E-01   2.460090E+00   2.034514E+00   3.099468E+00   1.072948E+00   1.136511E+00   8.956260E+00   3.191496E+00   5.058495E+00   5.245357E-01   1.045619E+00   7.686803E-01   2.940735E-01   7.794756E-01   1.088993E+01   1.053152E+01   2.382792E+00   8.982139E+00   9.671573E+00   4.330376E+00   1.108954E+01   1.666743E+00   2.477189E+00   1.337328E+01   1.888418E-01  
[...]
<PointData Scalars="Diameter" Vectors="Velocity">
<DataArray type="Float32" Name="Diameter" format="ascii">
  4.000000E-01   4.000000E-01   4.000000E-01   4.000000E-01   4.000000E-01   4.000000E-01   4.000000E-01   4.000000E-01   4.000000E-01   4.000000E-01   4.000000E-01   4.000000E-01   4.000000E-01   4.000000E-01   4.000000E-01   4.000000E-01   4.000000E-01   4.000000E-01   4.000000E-01   4.000000E-01   4.000000E-01   4.000000E-01   4.000000E-01   4.000000E-01   4.000000E-01   4.000000E-01   4.000000E-01   4.000000E-01   4.000000E-01   4.000000E-01   4.000000E-01   4.000000E-01   4.000000E-01   4.000000E-01   4.000000E-01   4.000000E-01   4.000000E-01   4.000000E-01   4.000000E-01   4.000000E-01   4.000000E-01   4.000000E-01   4.000000E-01   4.000000E-01   4.000000E-01   4.000000E-01   4.000000E-01   4.000000E-01   4.000000E-01   4.000000E-01   4.000000E-01   4.000000E-01   4.000000E-01   4.000000E-01   4.000000E-01   4.000000E-01   4.000000E-01   4.000000E-01   4.000000E-01   4.000000E-01   4.000000E-01   4.000000E-01   4.000000E-01   4.000000E-01   4.000000E-01   4.000000E-01   4.000000E-01   4.000000E-01   4.000000E-01   4.000000E-01   4.000000E-01   4.000000E-01   4.000000E-01   4.000000E-01   4.000000E-01   4.000000E-01   4.000000E-01   4.000000E-01   4.000000E-01   4.000000E-01   4.000000E-01   4.000000E-01   4.000000E-01   4.000000E-01   4.000000E-01   4.000000E-01   4.000000E-01   4.000000E-01   4.000000E-01   4.000000E-01   4.000000E-01   4.000000E-01   4.000000E-01   4.000000E-01   4.000000E-01   4.000000E-01   4.000000E-01   4.000000E-01   4.000000E-01   4.000000E-01   4.000000E-01   4.000000E-01   4.000000E-01   4.000000E-01   4.000000E-01   4.000000E-01   4.000000E-01   4.000000E-01   4.000000E-01   4.000000E-01   4.000000E-01   4.000000E-01   4.000000E-01   4.000000E-01   4.000000E-01   4.000000E-01   4.000000E-01   4.000000E-01   4.000000E-01   4.000000E-01   4.000000E-01   4.000000E-01   4.000000E-01   4.000000E-01   4.000000E-01   4.000000E-01   4.000000E-01   4.000000E-01   4.000000E-01   4.000000E-01   4.000000E-01   4.000000E-01   4.000000E-01   4.000000E-01   4.000000E-01   4.000000E-01   4.000000E-01   4.000000E-01   4.000000E-01   4.000000E-01   4.000000E-01   4.000000E-01   4.000000E-01   4.000000E-01   4.000000E-01   4.000000E-01   4.000000E-01   4.000000E-01   4.000000E-01   4.000000E-01   4.000000E-01   4.000000E-01   4.000000E-01   4.000000E-01   4.000000E-01   4.000000E-01   4.000000E-01   4.000000E-01   4.000000E-01   4.000000E-01   4.000000E-01   4.000000E-01   4.000000E-01   4.000000E-01   4.000000E-01   4.000000E-01   4.000000E-01   4.000000E-01   4.000000E-01   4.000000E-01   4.000000E-01   4.000000E-01   4.000000E-01   4.000000E-01   4.000000E-01   4.000000E-01   4.000000E-01   4.000000E-01   4.000000E-01   4.000000E-01   4.000000E-01   4.000000E-01   4.000000E-01   4.000000E-01   4.000000E-01   4.000000E-01   4.000000E-01   4.000000E-01   4.000000E-01   4.000000E-01   4.000000E-01   4.000000E-01   4.000000E-01   4.000000E-01   4.000000E-01   4.000000E-01   4.000000E-01   4.000000E-01   4.000000E-01   4.000000E-01   4.000000E-01   4.000000E-01   4.000000E-01   4.000000E-01   4.000000E-01   4.000000E-01   4.000000E-01   4.000000E-01   4.000000E-01   4.000000E-01   4.000000E-01   4.000000E-01   4.000000E-01   4.000000E-01   4.000000E-01   4.000000E-01   4.000000E-01   4.000000E-01   4.000000E-01   4.000000E-01   4.000000E-01   4.000000E-01   4.000000E-01   4.000000E-01   4.000000E-01   4.000000E-01   4.000000E-01   4.000000E-01   4.000000E-01   4.000000E-01   4.000000E-01   4.000000E-01   4.000000E-01   4.000000E-01   4.000000E-01   4.000000E-01   4.000000E-01   4.000000E-01   4.000000E-01   4.000000E-01   4.000000E-01   4.000000E-01   4.000000E-01   4.000000E-01   4.000000E-01   4.000000E-01   4.000000E-01   4.000000E-01   4.000000E-01   4.000000E-01   4.000000E-01   4.000000E-01   4.000000E-01   4.000000E-01   4.000000E-01   4.000000E-01   4.000000E-01   4.000000E-01   4.000000E-01   4.000000E-01   4.000000E-01   4.000000E-01   4.000000E-01   4.000000E-01   4.000000E-01   4.000000E-01   4.000000E-01   4.000000E-01   4.000000E-01   4.000000E-01   4.000000E-01   4.000000E-01   4.000000E-01   4.000000E-01   4.000000E-01   4.000000E-01   4.000000E-01   4.000000E-01   4.000000E-01   4.000000E-01   4.000000E-01   4.000000E-01   4.000000E-01   4.000000E-01   4.000000E-01   4.000000E-01   4.000000E-01   4.000000E-01   4.000000E-01   4.000000E-01   4.000000E-01   4.000000E-01   4.000000E-01   4.000000E-01   4.000000E-01   4.000000E-01   4.000000E-01   4.000000E-01   4.000000E-01   4.000000E-01   4.000000E-01   4.000000E-01   4.000000E-01   4.000000E-01   4.000000E-01   4.000000E-01   4.000000E-01   4.000000E-01   4.000000E-01   4.000000E-01   4.000000E-01   4.000000E-01   4.000000E-01   4.000000E-01   4.000000E-01   4.000000E-01   4.000000E-01   4.000000E-01   4.000000E-01   4.000000E-01   4.000000E-01   4.000000E-01   4.000000E-01   4.000000E-01   4.000000E-01   4.000000E-01   4.000000E-01   4.000000E-01   4.000000E-01   4.000000E-01   4.000000E-01   4.000000E-01   4.000000E-01   4.000000E-01   4.000000E-01   4.000000E-01   4.000000E-01   4.000000E-01   4.000000E-01   4.000000E-01   4.000000E-01   4.000000E-01   4.000000E-01   4.000000E-01   4.000000E-01   4.000000E-01   4.000000E-01   4.000000E-01   4.000000E-01   4.000000E-01   4.000000E-01   4.000000E-01   4.000000E-01   4.000000E-01   4.000000E-01   4.000000E-01   4.000000E-01   4.000000E-01   4.000000E-01   4.000000E-01   4.000000E-01   4.000000E-01   4.000000E-01   4.000000E-01   4.000000E-01   4.000000E-01   4.000000E-01   4.000000E-01   4.000000E-01   4.000000E-01   4.000000E-01   4.000000E-01   4.000000E-01   4.000000E-01   4.000000E-01   4.000000E-01   4.000000E-01   4.000000E-01   4.000000E-01   4.000000E-01   4.000000E-01   4.000000E-01   4.000000E-01   4.000000E-01   4.000000E-01   4.000000E-01   4.000000E-01   4.000000E-01   4.000000E-01   4.000000E-01   4.000000E-01   4.000000E-01   4.000000E-01   4.000000E-01   4.000000E-01   4.000000E-01   4.000000E-01   4.000000E-01   4.000000E-01   4.000000E-01   4.000000E-01   4.000000E-01   4.000000E-01   4.000000E-01   4.000000E-01   4.000000E-01   4.000000E-01   4.000000E-01   4.000000E-01   4.000000E-01   4.000000E-01   4.000000E-01   4.000000E-01   4.000000E-01   4.000000E-01   4.000000E-01   4.000000E-01   4.000000E-01   4.000000E-01   4.000000E-01   4.000000E-01   4.000000E-01   4.000000E-01   4.000000E-01   4.000000E-01   4.000000E-01   4.000000E-01   4.000000E-01   4.000000E-01   4.000000E-01   4.000000E-01   4.000000E-01   4.000000E-01   4.000000E-01   4.000000E-01   4.000000E-01   4.000000E-01   4.000000E-01   4.000000E-01   4.000000E-01   4.000000E-01   4.000000E-01   4.000000E-01   4.000000E-01   4.000000E-01   4.000000E-01   4.000000E-01   4.000000E-01   4.000000E-01   4.000000E-01   4.000000E-01   4.000000E-01   4.000000E-01   4.000000E-01   4.000000E-01   4.000000E-01   4.000000E-01   4.000000E-01   4.000000E-01   4.000000E-01   4.000000E-01   4.000000E-01   4.000000E-01   4.000000E-01   4.000000E-01   4.000000E-01   4.000000E-01   4.000000E-01   4.000000E-01   4.000000E-01   4.000000E-01   4.000000E-01   4.000000E-01   4.000000E-01   4.000000E-01   4.000000E-01   4.000000E-01   4.000000E-01   4.000000E-01   4.000000E-01   4.000000E-01   4.000000E-01   4.000000E-01   4.000000E-01   4.000000E-01   4.000000E-01   4.000000E-01   4.000000E-01   4.000000E-01   4.000000E-01   4.000000E-01   4.000000E-01   4.000000E-01   4.000000E-01   4.000000E-01   4.000000E-01   4.000000E-01   4.000000E-01   4.000000E-01   4.000000E-01   4.000000E-01   4.000000E-01   4.000000E-01   4.000000E-01   4.000000E-01   4.000000E-01   4.000000E-01   4.000000E-01   4.000000E-01   4.000000E-01   4.000000E-01   4.000000E-01   4.000000E-01   4.000000E-01   4.000000E-01   4.000000E-01   4.000000E-01   4.000000E-01   4.000000E-01   4.000000E-01   4.000000E-01   4.000000E-01   4.000000E-01   4.000000E-01   4.000000E-01   4.000000E-01   4.000000E-01   4.000000E-01   4.000000E-01   4.000000E-01   4.000000E-01   4.000000E-01   4.000000E-01   4.000000E-01   4.000000E-01   4.000000E-01   4.000000E-01   4.000000E-01   4.000000E-01   4.000000E-01   4.000000E-01   4.000000E-01   4.000000E-01   4.000000E-01   4.000000E-01   4.000000E-01   4.000000E-01   4.000000E-01   4.000000E-01   4.000000E-01   4.000000E-01   4.000000E-01   4.000000E-01   4.000000E-01   4.000000E-01   4.000000E-01   4.000000E-01   4.000000E-01   4.000000E-01   4.000000E-01   4.000000E-01   4.000000E-01   4.000000E-01   4.000000E-01   4.000000E-01   4.000000E-01   4.000000E-01   4.000000E-01   4.000000E-01   4.000000E-01   4.000000E-01   4.000000E-01   4.000000E-01   4.000000E-01   4.000000E-01   4.000000E-01   4.000000E-01   4.000000E-01   4.000000E-01   4.000000E-01   4.000000E-01   4.000000E-01   4.000000E-01   4.000000E-01   4.000000E-01   4.000000E-01   4.000000E-01   4.000000E-01   4.000000E-01   4.000000E-01   4.000000E-01   4.000000E-01   4.000000E-01   4.000000E-01   4.000000E-01   4.000000E-01   4.000000E-01   4.000000E-01   4.000000E-01   4.000000E-01   4.000000E-01   4.000000E-01   4.000000E-01   4.000000E-01   4.000000E-01   4.000000E-01   4.000000E-01   4.000000E-01   4.000000E-01   4.000000E-01   4.000000E-01   4.000000E-01   4.000000E-01   4.000000E-01   4.000000E-01   4.000000E-01   4.000000E-01   4.000000E-01   4.000000E-01   4.000000E-01   4.000000E-01   4.000000E-01   4.000000E-01   4.000000E-01   4.000000E-01   4.000000E-01   4.000000E-01   4.000000E-01   4.000000E-01   4.000000E-01   4.000000E-01   4.000000E-01   4.000000E-01   4.000000E-01   4.000000E-01   4.000000E-01   4.000000E-01   4.000000E-01   4.000000E-01   4.000000E-01   4.000000E-01   4.000000E-01   4.000000E-01   4.000000E-01   4.000000E-01   4.000000E-01   4.000000E-01   4.000000E-01   4.000000E-01   4.000000E-01   4.000000E-01   4.000000E-01   4.000000E-01   4.000000E-01   4.000000E-01   4.000000E-01   4.000000E-01   4.000000E-01   4.000000E-01   4.000000E-01   4.000000E-01   4.000000E-01   4.000000E-01   4.000000E-01   4.000000E-01   4.000000E-01   4.000000E-01   4.000000E-01   4.000000E-01   4.000000E-01   4.000000E-01   4.000000E-01   4.000000E-01   4.000000E-01   4.000000E-01   4.000000E-01   4.000000E-01   4.000000E-01   4.000000E-01   4.000000E-01   4.000000E-01   4.000000E-01   4.000000E-01   4.000000E-01   4.000000E-01   4.000000E-01   4.000000E-01   4.000000E-01   4.000000E-01   4.000000E-01   4.000000E-01   4.000000E-01   4.000000E-01   4.000000E-01   4.000000E-01   4.000000E-01   4.000000E-01   4.000000E-01   4.000000E-01   4.000000E-01   4.000000E-01   4.000000E-01   4.000000E-01   4.000000E-01   4.000000E-01   4.000000E-01   4.000000E-01   4.000000E-01   4.000000E-01   4.000000E-01   4.000000E-01   4.000000E-01   4.000000E-01   4.000000E-01   4.000000E-01   4.000000E-01   4.000000E-01   4.000000E-01   4.000000E-01   4.000000E-01   4.000000E-01   4.000000E-01   4.000000E-01   4.000000E-01   4.000000E-01   4.000000E-01   4.000000E-01   4.000000E-01   4.000000E-01   4.000000E-01   4.000000E-01   4.000000E-01   4.000000E-01   4.000000E-01   4.000000E-01   4.000000E-01   4.000000E-01   4.000000E-01   4.000000E-01   4.000000E-01   4.000000E-01   4.000000E-01   4.000000E-01   4.000000E-01   4.000000E-01   4.000000E-01   4.000000E-01   4.000000E-01   4.000000E-01   4.000000E-01   4.000000E-01   4.000000E-01   4.000000E-01   4.000000E-01   4.000000E-01   4.000000E-01   4.000000E-01   4.000000E-01   4.000000E-01   4.000000E-01   4.000000E-01   4.000000E-01   4.000000E-01   4.000000E-01   4.000000E-01   4.000000E-01   4.000000E-01   4.000000E-01   4.000000E-01   4.000000E-01   4.000000E-01   4.000000E-01   4.000000E-01   4.000000E-01   4.000000E-01   4.000000E-01   4.000000E-01   4.000000E-01   4.000000E-01   4.000000E-01   4.000000E-01   4.000000E-01   4.000000E-01   4.000000E-01   4.000000E-01   4.000000E-01   4.000000E-01   4.000000E-01   4.000000E-01   4.000000E-01   4.000000E-01   4.000000E-01   4.000000E-01   4.000000E-01   4.000000E-01   4.000000E-01   4.000000E-01   4.000000E-01   4.000000E-01   4.000000E-01   4.000000E-01   4.000000E-01   4.000000E-01   4.000000E-01   4.000000E-01   4.000000E-01   4.000000E-01   4.000000E-01   4.000000E-01   4.000000E-01   4.000000E-01   4.000000E-01   4.000000E-01   4.000000E-01   4.000000E-01   4.000000E-01   4.000000E-01   4.000000E-01   4.000000E-01   4.000000E-01   4.000000E-01   4.000000E-01   4.000000E-01   4.000000E-01   4.000000E-01   4.000000E-01   4.000000E-01   4.000000E-01   4.000000E-01   4.000000E-01   4.000000E-01   4.000000E-01   4.000000E-01   4.000000E-01   4.000000E-01   4.000000E-01   4.000000E-01   4.000000E-01   4.000000E-01   4.000000E-01   4.000000E-01   4.000000E-01   4.000000E-01   4.000000E-01   4.000000E-01   4.000000E-01   4.000000E-01   4.000000E-01   4.000000E-01   4.000000E-01   4.000000E-01   4.000000E-01   4.000000E-01   4.000000E-01   4.000000E-01   4.000000E-01   4.000000E-01   4.000000E-01   4.000000E-01   4.000000E-01   4.000000E-01   4.000000E-01   4.000000E-01   4.000000E-01   4.000000E-01   4.000000E-01   4.000000E-01   4.000000E-01   4.000000E-01   4.000000E-01   4.000000E-01   4.000000E-01   4.000000E-01   4.000000E-01   4.000000E-01   4.000000E-01   4.000000E-01   4.000000E-01   4.000000E-01   4.000000E-01   4.000000E-01   4.000000E-01   4.000000E-01   4.000000E-01   4.000000E-01   4.000000E-01   4.000000E-01   4.000000E-01   4.000000E-01   4.000000E-01   4.000000E-01   4.000000E-01   4.000000E-01   4.000000E-01   4.000000E-01   4.000000E-01   4.000000E-01   4.000000E-01   4.000000E-01   4.000000E-01   4.000000E-01   4.000000E-01   4.000000E-01   4.000000E-01   4.000000E-01   4.000000E-01   4.000000E-01   4.000000E-01   4.000000E-01   4.000000E-01   4.000000E-01   4.000000E-01   4.000000E-01   4.000000E-01   4.000000E-01   4.000000E-01   4.000000E-01   4.000000E-01   4.000000E-01   4.000000E-01   4.000000E-01   4.000000E-01   4.000000E-01   4.000000E-01   4.000000E-01   4.000000E-01   4.000000E-01   4.000000E-01   4.000000E-01   4.000000E-01   4.000000E-01   4.000000E-01   4.000000E-01   4.000000E-01   4.000000E-01   4.000000E-01   4.000000E-01   4.000000E-01   4.000000E-01   4.000000E-01   4.000000E-01   4.000000E-01   4.000000E-01   4.000000E-01   4.000000E-01   4.000000E-01   4.000000E-01   4.000000E-01   4.000000E-01   4.000000E-01   4.000000E-01   4.000000E-01   4.000000E-01   4.000000E-01   4.000000E-01   4.000000E-01   4.000000E-01   4.000000E-01   4.000000E-01   4.000000E-01   4.000000E-01   4.000000E-01   4.000000E-01   4.000000E-01   4.000000E-01   4.000000E-01   4.000000E-01   4.000000E-01   4.000000E-01   4.000000E-01   4.000000E-01   4.000000E-01   4.000000E-01   4.000000E-01   4.000000E-01   4.000000E-01   4.000000E-01   4.000000E-01   4.000000E-01   4.000000E-01   4.000000E-01   4.000000E-01   4.000000E-01   4.000000E-01   4.000000E-01   4.000000E-01   4.000000E-01   4.000000E-01   4.000000E-01   4.000000E-01   4.000000E-01   4.000000E-01   4.000000E-01   4.000000E-01   4.000000E-01   4.000000E-01   4.000000E-01   4.000000E-01   4.000000E-01   4.000000E-01   4.000000E-01   4.000000E-01   4.000000E-01   4.000000E-01   4.000000E-01   4.000000E-01   4.000000E-01   4.000000E-01   4.000000E-01   4.000000E-01   4.000000E-01   4.000000E-01   4.000000E-01   4.000000E-01   4.000000E-01   4.000000E-01   4.000000E-01   4.000000E-01   4.000000E-01   4.000000E-01   4.000000E-01   4.000000E-01   4.000000E-01   4.000000E-01   4.000000E-01   4.000000E-01   4.000000E-01   4.000000E-01   4.000000E-01   4.000000E-01   4.000000E-01   4.000000E-01   4.000000E-01   4.000000E-01   4.000000E-01   4.000000E-01   4.000000E-01   4.000000E-01   4.000000E-01   4.000000E-01   4.000000E-01   4.000000E-01   4.000000E-01   4.000000E-01   4.000000E-01   4.000000E-01   4.000000E-01   4.000000E-01   4.000000E-01   4.000000E-01   4.000000E-01   4.000000E-01   4.000000E-01   4.000000E-01   4.000000E-01   4.000000E-01   4.000000E-01   4.000000E-01   4.000000E-01   4.000000E-01   4.000000E-01   4.000000E-01   4.000000E-01   4.000000E-01   4.000000E-01   4.000000E-01   4.000000E-01   4.000000E-01   4.000000E-01   4.000000E-01   4.000000E-01   4.000000E-01   4.000000E-01   4.000000E-01   4.000000E-01   4.000000E-01   4.000000E-01   4.000000E-01   4.000000E-01   4.000000E-01   4.000000E-01   4.000000E-01   4.000000E-01   4.000000E-01   4.000000E-01   4.000000E-01   4.000000E-01   4.000000E-01   4.000000E-01   4.000000E-01   4.000000E-01   4.000000E-01   4.000000E-01   4.000000E-01   4.000000E-01   4.000000E-01   4.000000E-01   4.000000E-01   4.000000E-01   4.000000E-01   4.000000E-01   4.000000E-01   4.000000E-01   4.000000E-01   4.000000E-01   4.000000E-01   4.000000E-01   4.000000E-01   4.000000E-01   4.000000E-01   4.000000E-01   4.000000E-01   4.000000E-01   4.000000E-01   4.000000E-01   4.000000E-01   4.000000E-01   4.000000E-01   4.000000E-01   4.000000E-01   4.000000E-01   4.000000E-01   4.000000E-01   4.000000E-01   4.000000E-01   4.000000E-01   4.000000E-01   4.000000E-01   4.000000E-01   4.000000E-01   4.000000E-01   4.000000E-01   4.000000E-01   4.000000E-01   4.000000E-01   4.000000E-01   4.000000E-01   4.000000E-01   4.000000E-01   4.000000E-01   4.000000E-01   4.000000E-01   4.000000E-01   4.000000E-01   4.000000E-01   4.000000E-01   4.000000E-01   4.000000E-01   4.000000E-01   4.000000E-01   4.000000E-01   4.000000E-01   4.000000E-01   4.000000E-01   4.000000E-01   4.000000E-01   4.000000E-01   4.000000E-01   4.000000E-01   4.000000E-01   4.000000E-01   4.000000E-01   4.000000E-01   4.000000E-01   4.000000E-01   4.000000E-01   4.000000E-01   4.000000E-01   4.000000E-01   4.000000E-01   4.000000E-01   4.000000E-01   4.000000E-01   4.000000E-01   4.000000E-01   4.000000E-01   4.000000E-01   4.000000E-01   4.000000E-01   4.000000E-01   4.000000E-01   4.000000E-01   4.000000E-01   4.000000E-01   4.000000E-01   4.000000E-01   4.000000E-01   4.000000E-01   4.000000E-01   4.000000E-01   4.000000E-01   4.000000E-01   4.000000E-01   4.000000E-01   4.000000E-01   4.000000E-01   4.000000E-01   4.000000E-01   4.000000E-01   4.000000E-01   4.000000E-01   4.000000E-01   4.000000E-01   4.000000E-01   4.000000E-01   4.000000E-01   4.000000E-01   4.000000E-01   4.000000E-01   4.000000E-01   4.000000E-01   4.000000E-01   4.000000E-01   4.000000E-01   4.000000E-01   4.000000E-01   4.000000E-01   4.000000E-01   4.000000E-01   4.000000E-01   4.000000E-01   4.000000E-01   4.000000E-01   4.000000E-01   4.000000E-01   4.000000E-01   4.000000E-01   4.000000E-01   4.000000E-01   4.000000E-01   4.000000E-01   4.000000E-01   4.000000E-01   4.000000E-01   4.000000E-01   4.000000E-01   4.000000E-01   4.000000E-01   4.000000E-01   4.000000E-01   4.000000E-01   4.000000E-01   4.000000E-01   4.000000E-01   4.000000E-01   4.000000E-01   4.000000E-01   4.000000E-01   4.000000E-01   4.000000E-01   4.000000E-01   4.000000E-01   4.000000E-01   4.000000E-01   4.000000E-01   4.000000E-01   4.000000E-01   4.000000E-01   4.000000E-01   4.000000E-01   4.000000E-01   4.000000E-01   4.000000E-01   4.000000E-01   4.000000E-01   4.000000E-01   4.000000E-01   4.000000E-01   4.000000E-01   4.000000E-01   4.000000E-01   4.000000E-01   4.000000E-01   4.000000E-01   4.000000E-01   4.000000E-01   4.000000E-01   4.000000E-01   4.000000E-01   4.000000E-01   4.000000E-01   4.000000E-01   4.000000E-01   4.000000E-01   4.000000E-01   4.000000E-01   4.000000E-01   4.000000E-01   4.000000E-01   4.000000E-01   4.000000E-01   4.000000E-01   4.000000E-01   4.000000E-01   4.000000E-01   4.000000E-01   4.000000E-01   4.000000E-01   4.000000E-01   4.000000E-01   4.000000E-01   4.000000E-01   4.000000E-01   4.000000E-01   4.000000E-01   4.000000E-01   4.000000E-01   4.000000E-01   4.000000E-01   4.000000E-01   4.000000E-01   4.000000E-01   4.000000E-01   4.000000E-01   4.000000E-01   4.000000E-01   4.000000E-01   4.000000E-01   4.000000E-01   4.000000E-01   4.000000E-01   4.000000E-01   4.000000E-01   4.000000E-01   4.000000E-01   4.000000E-01   