<?xml version="1.0"?>
<!-- Time =  2.4999176260279601E+00s -->
<VTKFile type="PolyData" version="0.1" byte_order="LittleEndian">
<PolyData>
<Piece NumberOfPoints="0000002400" NumberOfVerts="0" NumberOfLines="0" NumberOfStrips="0" NumberOfPolys="0">
<Points>
<DataArray type="Float32" Name="Position" NumberOfComponents="3" format="ascii">
  2.063835E+00   2.052528E-01   2.050293E-01   7.246556E+00   1.260389E+00   4.190265E+00   3.790606E+00   4.580961E+00   3.196435E+00   7.054155E+00   1.970366E+00   3.522229E+00   1.136087E+01   3.817672E+00   1.261359E+00   1.199841E+01   2.050935E-01   2.511569E+00   1.043829E+01   4.482824E-01   2.722469E+00   1.331080E+01   2.183134E+00   2.775455E+00   9.071943E+00   8.111950E+00   4.314435E+00   5.446942E+00   1.079177E+00   2.145791E+00   3.382295E+00   7.320521E-01   6.428545E-01   6.452264E+00   8.179165E-01   4.011403E+00   1.161589E+01   1.581406E+01   2.126441E+00   8.774104E+00   1.382866E+00   6.133193E-01   2.650981E+00   7.308066E-01   3.609750E+00   1.022366E+01   1.745708E+00   3.044031E+00   4.471510E+00   3.035851E+00   2.757222E+00   1.287598E+01   3.336982E-01   3.108995E+00   2.930349E+00   1.306759E+00   3.617622E+00   4.200264E+00   1.328806E+00   8.934578E-01   2.866098E+00   3.319884E-01   4.146607E+00   1.259337E+01   2.193344E-01   7.493354E-01   2.274364E+00   2.260907E-01   4.608580E+00   4.235080E+00   2.161939E-01   1.675259E+00   6.357765E+00   2.237662E-01   2.675759E+00   8.866073E+00   2.085739E+01   2.983106E+00   3.281438E+00   2.865801E-01   8.519176E-01   4.439618E+00   8.921418E+00   3.100136E+00   4.762407E+00   4.464331E-01   4.406096E+00   9.973443E+00   9.243270E-01   3.097642E+00   4.419209E+00   2.174601E-01   4.494446E+00   6.570318E+00   1.144264E+00   3.231071E-01   1.447465E+01   6.458035E+00   2.665955E+00   1.157127E+01   7.729779E-01   3.689719E+00   5.094153E+00   7.677749E-01   2.266768E-01   4.937455E+00   3.208958E-01   2.682201E+00   1.189876E+00   6.603810E-01   7.185177E-01   5.501369E+00   7.711711E+00   1.973171E-01   3.421282E+00   3.039759E+00   7.642902E-01   1.401420E+00   6.079655E-01   4.486344E+00   6.963871E+00   1.451558E+00   1.047762E+00   1.341792E+01   1.862937E+00   1.975711E+00   7.469800E+00   1.462086E+01   4.921382E+00   2.706573E+00   1.109756E+00   2.899906E+00   4.568011E+00   9.436579E+00   4.671277E+00   3.181085E+00   2.522558E-01   1.595924E+00   6.111156E+00   5.985333E-01   4.655207E+00   1.141760E+01   5.426329E-01   2.054955E+00   1.121302E+01   1.976985E-01   1.434686E+00   9.580154E+00   1.549767E+01   2.637364E+00   3.195642E+00   5.301496E-01   2.102724E+00   1.463406E+01   5.246327E+00   2.924636E+00   2.737010E+00   6.590537E-01   2.016187E-01   1.472420E+01   1.965757E+01   1.109930E+00   5.624701E+00   1.876450E+00   2.876170E+00   1.154000E+01   7.102559E+00   5.211705E-01   3.087536E+00   9.664949E-01   2.553727E+00   3.788522E+00   1.333570E+00   1.957156E+00   2.979422E+00   1.057420E+00   5.507215E-01   1.044388E+01   1.651063E+00   4.088353E-01   1.657808E+00   5.034616E+00   4.767432E+00   5.984388E+00   8.532402E+00   1.298721E+00   7.012930E+00   1.502695E+00   4.638092E+00   3.693210E+00   8.846635E+00   1.225120E+00   1.450805E+01   2.791243E-01   3.106521E+00   4.228247E+00   2.502858E-01   1.255764E+00   1.808856E+00   1.684289E+00   3.630953E+00   3.959996E+00   6.492416E-01   4.669199E+00   8.680017E+00   9.057297E+00   4.583132E+00   7.263737E+00   8.254690E+00   3.386844E+00   4.644673E+00   2.226359E+00   4.468988E+00   1.401707E+01   3.981448E-01   8.286940E-01   1.467775E+01   3.653997E+00   4.992740E+00   6.453928E+00   8.875817E+00   3.072964E+00   7.008637E+00   1.235773E+01   2.770820E+00   6.176266E+00   6.620885E+00   6.843148E-01   5.955548E+00   2.127804E+01   7.305851E-01   8.620653E-01   1.624141E+01   4.176574E+00   5.469671E+00   9.104438E+00   1.167437E+00   8.491364E+00   6.856188E-01   2.808042E+00   7.601210E+00   2.396124E+00   3.134585E+00   6.273876E+00   5.812325E+00   4.815960E+00   5.020609E+00   3.610756E-01   2.176809E+00   3.387338E-01   8.925496E-01   2.105141E+00   3.760030E+00   2.113024E+00   2.550007E+00   4.371003E+00   6.156161E-01   4.338132E+00   5.990654E+00   9.976029E+00   3.833891E+00   5.469306E+00   6.112902E+00   4.172412E-01   5.635747E+00   2.036034E-01   1.144454E+00   1.376344E+01   2.201763E-01   3.560940E+00   5.842576E+00   7.611405E-01   3.891663E-01   6.466955E+00   5.805392E-01   4.460180E+00   1.232466E+01   1.567809E+01   3.159909E+00   6.934101E+00   3.003955E+00   4.023890E+00   4.844846E+00   7.865332E+00   4.570996E+00   6.857791E+00   8.301929E+00   3.127544E+00   7.373740E-01   2.273583E-01   4.635389E+00   1.351337E+01   4.364040E-01   2.443924E+00   5.536848E+00   9.278935E-01   2.519676E+00   6.286579E+00   1.397487E+01   3.623762E+00   6.697751E+00   4.312954E+00   1.192541E+00   2.190464E+00   6.603692E-01   3.455672E+00   6.150979E+00   2.423132E+00   3.561907E+00   5.983993E+00   7.158943E+00   1.533076E+00   2.664727E+00   5.897465E-01   6.217158E-01   1.423536E+00   3.197873E-01   7.591500E-01   9.855977E+00   8.147908E-01   4.165711E+00   4.861573E+00   5.264795E-01   3.989690E+00   1.237485E+01   2.139806E+00   4.388981E+00   1.417196E+01   1.561738E+00   2.690390E+00   6.377622E+00   1.501686E+00   3.443586E+00   8.051094E+00   5.052994E-01   4.019553E+00   4.670574E-01   1.499277E+00   1.185922E+00   5.630974E+00   1.802485E+00   9.599111E-01   2.275301E+00   9.539807E-01   2.936373E+00   7.207233E-01   5.238551E-01   1.494532E+00   1.102831E+01   8.863066E-01   7.521548E-01   1.251569E+01   6.416411E-01   1.933839E+00   7.883264E+00   9.939647E+00   6.439835E-01   9.231707E-01   9.378754E-01   3.337183E+00   6.231812E+00   1.217933E+00   3.802460E+00   3.910602E+00   1.162859E+00   3.429708E-01   1.226583E+01   1.942679E+01   2.804305E+00   9.431654E+00   2.584329E+00   4.251884E+00   6.191011E+00   3.647874E+00   4.632143E+00   5.591815E+00   9.081480E+00   2.299810E+00   5.452354E+00   9.822940E-01   2.224257E-01   3.593636E+00   6.599280E-01   3.498091E+00   3.283342E+00   9.174714E-01   1.881425E+00   4.354604E+00   1.099978E+00   5.418246E-01   1.463206E+00   4.516413E-01   1.647651E+00   8.774127E+00   1.650832E+01   1.274878E+00   8.525940E+00   1.064987E+01   2.539582E+00   4.272030E+00   8.041781E+00   1.830484E+00   6.806177E+00   2.897728E+00   3.451811E+00   1.418435E+01   7.054844E+00   1.618873E+00   1.382299E+01   6.485659E+00   4.324667E+00   1.709076E+00   2.110584E-01   2.976977E+00   5.464639E+00   2.212823E-01   7.690575E-01   4.189344E+00   5.115449E-01   3.563883E+00   5.300394E+00   2.198008E-01   2.535569E+00   5.905611E+00   3.290342E+00   2.122623E+00   5.170272E+00   8.827271E-01   3.044034E+00   2.660611E+00   3.067245E-01   3.777895E+00   1.076086E+00   2.071812E-01   1.849690E+00   6.996535E+00   4.004619E+00   3.348238E+00   3.855401E+00   9.115360E-01   1.437043E+00   4.011520E+00   8.815256E-01   3.676270E+00   2.872842E+00   2.136718E-01   1.841826E+00   7.536839E+00   7.607068E-01   3.044424E+00   9.425098E+00   1.786440E+01   6.748465E-01   5.224371E+00   2.311351E-01   1.411444E+00   9.122450E+00   5.279229E-01   2.083385E+00   1.026390E+01   3.411006E-01   4.571182E+00   7.362684E+00   6.024594E-01   4.105935E+00   2.315714E-01   5.840744E-01   4.045165E-01   1.168732E+00   6.105593E-01   1.929213E-01   1.552344E+00   2.642229E-01   2.002939E+00   4.207983E-01   5.886434E-01   7.743179E-01   5.953692E+00   1.999967E-01   8.074999E-01   9.712752E+00   1.246730E+01   1.559219E+00   9.644462E-01   5.157806E-01   2.480608E+00   2.051395E+00   1.960138E+00   3.777741E+00   5.071132E+00   2.048454E-01   4.533767E+00   5.284856E+00   5.500999E-01   4.001113E+00   1.055643E+01   1.459801E+01   2.250534E+00   6.274081E+00   2.380722E-01   1.068602E+00   8.346886E+00   7.680721E+00   4.673489E+00   3.452698E+00   4.249511E+00   9.966412E-01   6.393094E+00   2.056604E-01   2.125848E-01   9.686234E+00   1.556467E+00   3.093195E+00   2.580623E-01   1.508665E+00   2.822304E+00   4.625384E+00   2.014288E-01   1.103428E+00   6.904736E+00   1.876771E+00   1.582613E+00   3.092045E+00   8.736224E+00   2.764750E-01   4.982435E+00   7.530386E-01   4.709761E+00   8.814428E+00   7.251559E+00   2.772154E+00   6.529338E-01   2.033785E-01   1.050960E+00   4.240463E+00   8.775558E-01   2.634136E+00   4.583152E+00   2.264032E-01   6.417091E-01   4.438896E+00   6.002996E+00   5.041583E-01   3.294114E+00   4.250881E+00   3.076643E+00   2.159414E-01   5.752015E-01   3.554442E+00   6.536579E+00   2.437362E+00   2.874958E+00   1.527779E+00   1.406944E+00   3.293386E+00   2.258470E+00   7.166560E-01   2.757020E-01   3.561892E+00   8.998695E+00   3.746763E+00   5.669662E+00   5.653676E-01   2.725261E+00   9.277823E+00   1.557687E+01   1.159237E+00   5.190082E+00   1.659001E+00   1.499348E+00   1.168829E+01   1.509793E+01   8.258989E-01   8.201447E+00   4.997392E+00   3.675394E+00   8.394132E+00   1.373161E+01   1.774011E+00   3.860351E+00   2.010376E-01   2.991997E+00   3.699515E+00   4.763749E-01   2.588359E+00   2.548979E+00   4.869373E+00   4.920494E+00   3.828803E-01   6.704604E+00   2.948297E+00   4.481316E+00   6.830332E+00   1.421497E+00   1.234253E+01   1.259567E+00   3.364812E+00   4.960961E+00   6.271110E-01   6.409483E-01   2.619184E+00   5.095509E-01   4.706145E+00   4.168091E+00   1.396380E+01   4.604127E+00   7.342992E+00   1.652294E+00   4.803388E+00   9.002164E+00   1.811387E+00   2.526617E+00   4.426613E+00   7.060968E+00   2.308475E+00   1.373059E+01   7.718678E-01   4.321486E+00   3.013705E+00   6.292086E+00   4.042844E+00   6.027440E+00   1.487921E+00   2.426456E+00   1.723886E+00   5.335694E-01   3.230689E+00   8.815099E+00   3.998382E+00   3.712294E+00   6.588363E+00   9.063708E+00   1.568616E+00   3.709730E+00   1.440267E+01   2.423604E+00   6.223709E+00   2.251077E+00   4.455289E+00   4.610327E+00   9.272756E+00   2.376062E+00   5.844305E+00   1.022480E+01  
[...]
<PointData Scalars="Diameter" Vectors="Velocity">
<DataArray type="Float32" Name="Diameter" format="ascii">
  4.000000E-01   4.000000E-01   4.000000E-01   4.000000E-01   4.000000E-01   4.000000E-01   4.000000E-01   4.000000E-01   4.000000E-01   4.000000E-01   4.000000E-01   4.000000E-01   4.000000E-01   4.000000E-01   4.000000E-01   4.000000E-01   4.000000E-01   4.000000E-01   4.000000E-01   4.000000E-01   4.000000E-01   4.000000E-01   4.000000E-01   4.000000E-01   4.000000E-01   4.000000E-01   4.000000E-01   4.000000E-01   4.000000E-01   4.000000E-01   4.000000E-01   4.000000E-01   4.000000E-01   4.000000E-01   4.000000E-01   4.000000E-01   4.000000E-01   4.000000E-01   4.000000E-01   4.000000E-01   4.000000E-01   4.000000E-01   4.000000E-01   4.000000E-01   4.000000E-01   4.000000E-01   4.000000E-01   4.000000E-01   4.000000E-01   4.000000E-01   4.000000E-01   4.000000E-01   4.000000E-01   4.000000E-01   4.000000E-01   4.000000E-01   4.000000E-01   4.000000E-01   4.000000E-01   4.000000E-01   4.000000E-01   4.000000E-01   4.000000E-01   4.000000E-01   4.000000E-01   4.000000E-01   4.000000E-01   4.000000E-01   4.000000E-01   4.000000E-01   4.000000E-01   4.000000E-01   4.000000E-01   4.000000E-01   4.000000E-01   4.000000E-01   4.000000E-01   4.000000E-01   4.000000E-01   4.000000E-01   4.000000E-01   4.000000E-01   4.000000E-01   4.000000E-01   4.000000E-01   4.000000E-01   4.000000E-01   4.000000E-01   4.000000E-01   4.000000E-01   4.000000E-01   4.000000E-01   4.000000E-01   4.000000E-01   4.000000E-01   4.000000E-01   4.000000E-01   4.000000E-01   4.000000E-01   4.000000E-01   4.000000E-01   4.000000E-01   4.000000E-01   4.000000E-01   4.000000E-01   4.000000E-01   4.000000E-01   4.000000E-01   4.000000E-01   4.000000E-01   4.000000E-01   4.000000E-01   4.000000E-01   4.000000E-01   4.000000E-01   4.000000E-01   4.000000E-01   4.000000E-01   4.000000E-01   4.000000E-01   4.000000E-01   4.000000E-01   4.000000E-01   4.000000E-01   4.000000E-01   4.000000E-01   4.000000E-01   4.000000E-01   4.000000E-01   4.000000E-01   4.000000E-01   4.000000E-01   4.000000E-01   4.000000E-01   4.000000E-01   4.000000E-01   4.000000E-01   4.000000E-01   4.000000E-01   4.000000E-01   4.000000E-01   4.000000E-01   4.000000E-01   4.000000E-01   4.000000E-01   4.000000E-01   4.000000E-01   4.000000E-01   4.000000E-01   4.000000E-01   4.000000E-01   4.000000E-01   4.000000E-01   4.000000E-01   4.000000E-01   4.000000E-01   4.000000E-01   4.000000E-01   4.000000E-01   4.000000E-01   4.000000E-01   4.000000E-01   4.000000E-01   4.000000E-01   4.000000E-01   4.000000E-01   4.000000E-01   4.000000E-01   4.000000E-01   4.000000E-01   4.000000E-01   4.000000E-01   4.000000E-01   4.000000E-01   4.000000E-01   4.000000E-01   4.000000E-01   4.000000E-01   4.000000E-01   4.000000E-01   4.000000E-01   4.000000E-01   4.000000E-01   4.000000E-01   4.000000E-01   4.000000E-01   4.000000E-01   4.000000E-01   4.000000E-01   4.000000E-01   4.000000E-01   4.000000E-01   4.000000E-01   4.000000E-01   4.000000E-01   4.000000E-01   4.000000E-01   4.000000E-01   4.000000E-01   4.000000E-01   4.000000E-01   4.000000E-01   4.000000E-01   4.000000E-01   4.000000E-01   4.000000E-01   4.000000E-01   4.000000E-01   4.000000E-01   4.000000E-01   4.000000E-01   4.000000E-01   4.000000E-01   4.000000E-01   4.000000E-01   4.000000E-01   4.000000E-01   4.000000E-01   4.000000E-01   4.000000E-01   4.000000E-01   4.000000E-01   4.000000E-01   4.000000E-01   4.000000E-01   4.000000E-01   4.000000E-01   4.000000E-01   4.000000E-01   4.000000E-01   4.000000E-01   4.000000E-01   4.000000E-01   4.000000E-01   4.000000E-01   4.000000E-01   4.000000E-01   4.000000E-01   4.000000E-01   4.000000E-01   4.000000E-01   4.000000E-01   4.000000E-01   4.000000E-01   4.000000E-01   4.000000E-01   4.000000E-01   4.000000E-01   4.000000E-01   4.000000E-01   4.000000E-01   4.000000E-01   4.000000E-01   4.000000E-01   4.000000E-01   4.000000E-01   4.000000E-01   4.000000E-01   4.000000E-01   4.000000E-01   4.000000E-01   4.000000E-01   4.000000E-01   4.000000E-01   4.000000E-01   4.000000E-01   4.000000E-01   4.000000E-01   4.000000E-01   4.000000E-01   4.000000E-01   4.000000E-01   4.000000E-01   4.000000E-01   4.000000E-01   4.000000E-01   4.000000E-01   4.000000E-01   4.000000E-01   4.000000E-01   4.000000E-01   4.000000E-01   4.000000E-01   4.000000E-01   4.000000E-01   4.000000E-01   4.000000E-01   4.000000E-01   4.000000E-01   4.000000E-01   4.000000E-01   4.000000E-01   4.000000E-01   4.000000E-01   4.000000E-01   4.000000E-01   4.000000E-01   4.000000E-01   4.000000E-01   4.000000E-01   4.000000E-01   4.000000E-01   4.000000E-01   4.000000E-01   4.000000E-01   4.000000E-01   4.000000E-01   4.000000E-01   4.000000E-01   4.000000E-01   4.000000E-01   4.000000E-01   4.000000E-01   4.000000E-01   4.000000E-01   4.000000E-01   4.000000E-01   4.000000E-01   4.000000E-01   4.000000E-01   4.000000E-01   4.000000E-01   4.000000E-01   4.000000E-01   4.000000E-01   4.000000E-01   4.000000E-01   4.000000E-01   4.000000E-01   4.000000E-01   4.000000E-01   4.000000E-01   4.000000E-01   4.000000E-01   4.000000E-01   4.000000E-01   4.000000E-01   4.000000E-01   4.000000E-01   4.000000E-01   4.000000E-01   4.000000E-01   4.000000E-01   4.000000E-01   4.000000E-01   4.000000E-01   4.000000E-01   4.000000E-01   4.000000E-01   4.000000E-01   4.000000E-01   4.000000E-01   4.000000E-01   4.000000E-01   4.000000E-01   4.000000E-01   4.000000E-01   4.000000E-01   4.000000E-01   4.000000E-01   4.000000E-01   4.000000E-01   4.000000E-01   4.000000E-01   4.000000E-01   4.000000E-01   4.000000E-01   4.000000E-01   4.000000E-01   4.000000E-01   4.000000E-01   4.000000E-01   4.000000E-01   4.000000E-01   4.000000E-01   4.000000E-01   4.000000E-01   4.000000E-01   4.000000E-01   4.000000E-01   4.000000E-01   4.000000E-01   4.000000E-01   4.000000E-01   4.000000E-01   4.000000E-01   4.000000E-01   4.000000E-01   4.000000E-01   4.000000E-01   4.000000E-01   4.000000E-01   4.000000E-01   4.000000E-01   4.000000E-01   4.000000E-01   4.000000E-01   4.000000E-01   4.000000E-01   4.000000E-01   4.000000E-01   4.000000E-01   4.000000E-01   4.000000E-01   4.000000E-01   4.000000E-01   4.000000E-01   4.000000E-01   4.000000E-01   4.000000E-01   4.000000E-01   4.000000E-01   4.000000E-01   4.000000E-01   4.000000E-01   4.000000E-01   4.000000E-01   4.000000E-01   4.000000E-01   4.000000E-01   4.000000E-01   4.000000E-01   4.000000E-01   4.000000E-01   4.000000E-01   4.000000E-01   4.000000E-01   4.000000E-01   4.000000E-01   4.000000E-01   4.000000E-01   4.000000E-01   4.000000E-01   4.000000E-01   4.000000E-01   4.000000E-01   4.000000E-01   4.000000E-01   4.000000E-01   4.000000E-01   4.000000E-01   4.000000E-01   4.000000E-01   4.000000E-01   4.000000E-01   4.000000E-01   4.000000E-01   4.000000E-01   4.000000E-01   4.000000E-01   4.000000E-01   4.000000E-01   4.000000E-01   4.000000E-01   4.000000E-01   4.000000E-01   4.000000E-01   4.000000E-01   4.000000E-01   4.000000E-01   4.000000E-01   4.000000E-01   4.000000E-01   4.000000E-01   4.000000E-01   4.000000E-01   4.000000E-01   4.000000E-01   4.000000E-01   4.000000E-01   4.000000E-01   4.000000E-01   4.000000E-01   4.000000E-01   4.000000E-01   4.000000E-01   4.000000E-01   4.000000E-01   4.000000E-01   4.000000E-01   4.000000E-01   4.000000E-01   4.000000E-01   4.000000E-01   4.000000E-01   4.000000E-01   4.000000E-01   4.000000E-01   4.000000E-01   4.000000E-01   4.000000E-01   4.000000E-01   4.000000E-01   4.000000E-01   4.000000E-01   4.000000E-01   4.000000E-01   4.000000E-01   4.000000E-01   4.000000E-01   4.000000E-01   4.000000E-01   4.000000E-01   4.000000E-01   4.000000E-01   4.000000E-01   4.000000E-01   4.000000E-01   4.000000E-01   4.000000E-01   4.000000E-01   4.000000E-01   4.000000E-01   4.000000E-01   4.000000E-01   4.000000E-01   4.000000E-01   4.000000E-01   4.000000E-01   4.000000E-01   4.000000E-01   4.000000E-01   4.000000E-01   4.000000E-01   4.000000E-01   4.000000E-01   4.000000E-01   4.000000E-01   4.000000E-01   4.000000E-01   4.000000E-01   4.000000E-01   4.000000E-01   4.000000E-01   4.000000E-01   4.000000E-01   4.000000E-01   4.000000E-01   4.000000E-01   4.000000E-01   4.000000E-01   4.000000E-01   4.000000E-01   4.000000E-01   4.000000E-01   4.000000E-01   4.000000E-01   4.000000E-01   4.000000E-01   4.000000E-01   4.000000E-01   4.000000E-01   4.000000E-01   4.000000E-01   4.000000E-01   4.000000E-01   4.000000E-01   4.000000E-01   4.000000E-01   4.000000E-01   4.000000E-01   4.000000E-01   4.000000E-01   4.000000E-01   4.000000E-01   4.000000E-01   4.000000E-01   4.000000E-01   4.000000E-01   4.000000E-01   4.000000E-01   4.000000E-01   4.000000E-01   4.000000E-01   4.000000E-01   4.000000E-01   4.000000E-01   4.000000E-01   4.000000E-01   4.000000E-01   4.000000E-01   4.000000E-01   4.000000E-01   4.000000E-01   4.000000E-01   4.000000E-01   4.000000E-01   4.000000E-01   4.000000E-01   4.000000E-01   4.000000E-01   4.000000E-01   4.000000E-01   4.000000E-01   4.000000E-01   4.000000E-01   4.000000E-01   4.000000E-01   4.000000E-01   4.000000E-01   4.000000E-01   4.000000E-01   4.000000E-01   4.000000E-01   4.000000E-01   4.000000E-01   4.000000E-01   4.000000E-01   4.000000E-01   4.000000E-01   4.000000E-01   4.000000E-01   4.000000E-01   4.000000E-01   4.000000E-01   4.000000E-01   4.000000E-01   4.000000E-01   4.000000E-01   4.000000E-01   4.000000E-01   4.000000E-01   4.000000E-01   4.000000E-01   4.000000E-01   4.000000E-01   4.000000E-01   4.000000E-01   4.000000E-01   4.000000E-01   4.000000E-01   4.000000E-01   4.000000E-01   4.000000E-01   4.000000E-01   4.000000E-01   4.000000E-01   4.000000E-01   4.000000E-01   4.000000E-01   4.000000E-01   4.000000E-01   4.000000E-01   4.000000E-01   4.000000E-01   4.000000E-01   4.000000E-01   4.000000E-01   4.000000E-01   4.000000E-01   4.000000E-01   4.000000E-01   4.000000E-01   4.000000E-01   4.000000E-01   4.000000E-01   4.000000E-01   4.000000E-01   4.000000E-01   4.000000E-01   4.000000E-01   4.000000E-01   4.000000E-01   4.000000E-01   4.000000E-01   4.000000E-01   4.000000E-01   4.000000E-01   4.000000E-01   4.000000E-01   4.000000E-01   4.000000E-01   4.000000E-01   4.000000E-01   4.000000E-01   4.000000E-01   4.000000E-01   4.000000E-01   4.000000E-01   4.000000E-01   4.000000E-01   4.000000E-01   4.000000E-01   4.000000E-01   4.000000E-01   4.000000E-01   4.000000E-01   4.000000E-01   4.000000E-01   4.000000E-01   4.000000E-01   4.000000E-01   4.000000E-01   4.000000E-01   4.000000E-01   4.000000E-01   4.000000E-01   4.000000E-01   4.000000E-01   4.000000E-01   4.000000E-01   4.000000E-01   4.000000E-01   4.000000E-01   4.000000E-01   4.000000E-01   4.000000E-01   4.000000E-01   4.000000E-01   4.000000E-01   4.000000E-01   4.000000E-01   4.000000E-01   4.000000E-01   4.000000E-01   4.000000E-01   4.000000E-01   4.000000E-01   4.000000E-01   4.000000E-01   4.000000E-01   4.000000E-01   4.000000E-01   4.000000E-01   4.000000E-01   4.000000E-01   4.000000E-01   4.000000E-01   4.000000E-01   4.000000E-01   4.000000E-01   4.000000E-01   4.000000E-01   4.000000E-01   4.000000E-01   4.000000E-01   4.000000E-01   4.000000E-01   4.000000E-01   4.000000E-01   4.000000E-01   4.000000E-01   4.000000E-01   4.000000E-01   4.000000E-01   4.000000E-01   4.000000E-01   4.000000E-01   4.000000E-01   4.000000E-01   4.000000E-01   4.000000E-01   4.000000E-01   4.000000E-01   4.000000E-01   4.000000E-01   4.000000E-01   4.000000E-01   4.000000E-01   4.000000E-01   4.000000E-01   4.000000E-01   4.000000E-01   4.000000E-01   4.000000E-01   4.000000E-01   4.000000E-01   4.000000E-01   4.000000E-01   4.000000E-01   4.000000E-01   4.000000E-01   4.000000E-01   4.000000E-01   4.000000E-01   4.000000E-01   4.000000E-01   4.000000E-01   4.000000E-01   4.000000E-01   4.000000E-01   4.000000E-01   4.000000E-01   4.000000E-01   4.000000E-01   4.000000E-01   4.000000E-01   4.000000E-01   4.000000E-01   4.000000E-01   4.000000E-01   4.000000E-01   4.000000E-01   4.000000E-01   4.000000E-01   4.000000E-01   4.000000E-01   4.000000E-01   4.000000E-01   4.000000E-01   4.000000E-01   4.000000E-01   4.000000E-01   4.000000E-01   4.000000E-01   4.000000E-01   4.000000E-01   4.000000E-01   4.000000E-01   4.000000E-01   4.000000E-01   4.000000E-01   4.000000E-01   4.000000E-01   4.000000E-01   4.000000E-01   4.000000E-01   4.000000E-01   4.000000E-01   4.000000E-01   4.000000E-01   4.000000E-01   4.000000E-01   4.000000E-01   4.000000E-01   4.000000E-01   4.000000E-01   4.000000E-01   4.000000E-01   4.000000E-01   4.000000E-01   4.000000E-01   4.000000E-01   4.000000E-01   4.000000E-01   4.000000E-01   4.000000E-01   4.000000E-01   4.000000E-01   4.000000E-01   4.000000E-01   4.000000E-01   4.000000E-01   4.000000E-01   4.000000E-01   4.000000E-01   4.000000E-01   4.000000E-01   4.000000E-01   4.000000E-01   4.000000E-01   4.000000E-01   4.000000E-01   4.000000E-01   4.000000E-01   4.000000E-01   4.000000E-01   4.000000E-01   4.000000E-01   4.000000E-01   4.000000E-01   4.000000E-01   4.000000E-01   4.000000E-01   4.000000E-01   4.000000E-01   4.000000E-01   4.000000E-01   4.000000E-01   4.000000E-01   4.000000E-01   4.000000E-01   4.000000E-01   4.000000E-01   4.000000E-01   4.000000E-01   4.000000E-01   4.000000E-01   4.000000E-01   4.000000E-01   4.000000E-01   4.000000E-01   4.000000E-01   4.000000E-01   4.000000E-01   4.000000E-01   4.000000E-01   4.000000E-01   4.000000E-01   4.000000E-01   4.000000E-01   4.000000E-01   4.000000E-01   4.000000E-01   4.000000E-01   4.000000E-01   4.000000E-01   4.000000E-01   4.000000E-01   4.000000E-01   4.000000E-01   4.000000E-01   4.000000E-01   4.000000E-01   4.000000E-01   4.000000E-01   4.000000E-01   4.000000E-01   4.000000E-01   4.000000E-01   4.000000E-01   4.000000E-01   4.000000E-01   4.000000E-01   4.000000E-01   4.000000E-01   4.000000E-01   4.000000E-01   4.000000E-01   4.000000E-01   4.000000E-01   4.000000E-01   4.000000E-01   4.000000E-01   4.000000E-01   4.000000E-01   4.000000E-01   4.000000E-01   4.000000E-01   4.000000E-01   4.000000E-01   4.000000E-01   4.000000E-01   4.000000E-01   4.000000E-01   4.000000E-01   4.000000E-01   4.000000E-01   4.000000E-01   4.000000E-01   4.000000E-01   4.000000E-01   4.000000E-01   4.000000E-01   4.000000E-01   4.000000E-01   4.000000E-01   4.000000E-01   4.000000E-01   4.000000E-01   4.000000E-01   4.000000E-01   4.000000E-01   4.000000E-01   4.000000E-01   4.000000E-01   4.000000E-01   4.000000E-01   4.000000E-01   4.000000E-01   4.000000E-01   4.000000E-01   4.000000E-01   4.000000E-01   4.000000E-01   4.000000E-01   4.000000E-01   4.000000E-01   4.000000E-01   4.000000E-01   4.000000E-01   4.000000E-01   4.000000E-01   4.000000E-01   4.000000E-01   4.000000E-01   4.000000E-01   4.000000E-01   4.000000E-01   4.000000E-01   4.000000E-01   4.000000E-01   4.000000E-01   4.000000E-01   4.000000E-01   4.000000E-01   4.000000E-01   4.000000E-01   4.000000E-01   4.000000E-01   4.000000E-01   4.000000E-01   4.000000E-01   4.000000E-01   4.000000E-01   4.000000E-01   4.000000E-01   4.000000E-01   4.000000E-01   4.000000E-01   4.000000E-01   4.000000E-01   4.000000E-01   4.000000E-01   4.000000E-01   4.000000E-01   4.000000E-01   4.000000E-01   4.000000E-01   4.000000E-01   4.000000E-01   4.000000E-01   4.000000E-01   4.000000E-01   4.000000E-01   4.000000E-01   4.000000E-01   4.000000E-01   4.000000E-01   4.000000E-01   4.000000E-01   4.000000E-01   4.000000E-01   4.000000E-01   4.000000E-01   4.000000E-01   4.000000E-01   4.000000E-01   4.000000E-01   4.000000E-01   4.000000E-01   4.000000E-01   4.000000E-01   4.000000E-01   4.000000E-01   4.000000E-01   4.000000E-01   4.000000E-01   4.000000E-01   4.000000E-01   4.000000E-01   4.000000E-01   4.000000E-01   4.000000E-01   4.000000E-01   4.000000E-01   4.000000E-01   4.000000E-01   4.000000E-01   4.000000E-01   4.000000E-01   4.000000E-01   4.000000E-01   4.000000E-01   4.000000E-01   4.000000E-01   4.000000E-01   4.000000E-01   4.000000E-01   4.000000E-01   4.000000E-01   4.000000E-01   4.000000E-01   4.000000E-01   4.000000E-01   4.000000E-01   4.000000E-01   4.000000E-01   4.000000E-01   4.000000E-01   4.000000E-01   4.000000E-01   4.000000E-01   4.000000E-01   4.000000E-01   4.000000E-01   4.000000E-01   4.000000E-01   4.000000E-01   4.000000E-01   4.000000E-01   4.000000E-01   4.000000E-01   4.000000E-01   4.000000E-01   4.000000E-01   4.000000E-01   4.000000E-01   4.000000E-01   4.000000E-01   4.000000E-01   4.000000E-01   4.000000E-01   4.000000E-01   4.000000E-01   4.000000E-01   4.000000E-01   4.000000E-01   4.000000E-01   4.000000E-01   4.000000E-01   4.000000E-01   4.000000E-01   4.000000E-01   4.000000E-01   4.000000E-01   4.000000E-01   4.000000E-01   4.000000E-01   4.000000E-01   4.000000E-01   4.000000E-01   4.000000E-01   4.000000E-01   4.000000E-01   4.000000E-01   4.000000E-01   4.000000E-01   4.000000E-01   4.000000E-01   4.000000E-01   4.000000E-01   4.000000E-01   4.000000E-01   4.000000E-01   4.000000E-01   4.000000E-01   4.000000E-01   4.000000E-01   4.000000E-01   4.000000E-01   4.000000E-01   4.000000E-01   4.000000E-01   4.000000E-01   4.000000E-01   4.000000E-01   4.000000E-01   4.000000E-01   4.000000E-01   4.000000E-01   4.000000E-01   4.000000E-01   4.000000E-01   4.000000E-01   4.000000E-01   4.000000E-01   4.000000E-01   4.000000E-01   4.000000E-01   4.000000E-01   4.000000E-01   4.000000E-01   4.000000E-01   4.000000E-01   4.000000E-01   4.000000E-01   4.000000E-01   4.000000E-01   4.000000E-01   4.000000E-01   4.000000E-01   4.000000E-01   4.000000E-01   4.000000E-01   4.000000E-01   4.000000E-01   4.000000E-01   4.000000E-01   4.000000E-01   4.000000E-01   4.000000E-01   4.000000E-01   4.000000E-01   4.000000E-01   4.000000E-01   4.000000E-01   4.000000E-01   4.000000E-01   4.000000E-01   4.000000E-01   4.000000E-01   4.000000E-01   4.000000E-01   4.000000E-01   4.000000E-01   4.000000E-01   4.000000E-01   4.000000E-01   4.000000E-01   4.000000E-01   4.000000E-01   4.000000E-01   4.000000E-01   4.000000E-01   4.000000E-01   4.000000E-01   4.000000E-01   4.000000E-01   4.000000E-01   4.000000E-01   4.000000E-01   4.000000E-01   4.000000E-01   4.000000E-01   4.000000E-01   4.000000E-01   4.000000E-01   4.000000E-01   4.000000E-01   4.000000E-01   4.000000E-01   4.000000E-01   4.000000E-01   4.000000E-01   4.000000E-01   4.000000E-01   4.000000E-01   4.000000E-01   4.000000E-01   4.000000E-01   4.000000E-01   4.000000E-01   4.000000E-01   4.000000E-01   4.000000E-01   4.000000E-01   4.000000E-01   4.000000E-01   4.000000E-01   4.000000E-01   4.000000E-01   4.000000E-01   4.000000E-01   4.000000E-01   4.000000E-01   4.000000E-01   4.000000E-01   4.000000E-01   4.000000E-01   4.000000E-01   4.000000E-01   4.000000E-01   4.000000E-01   4.000000E-01   4.000000E-01   4.000000E-01   4.000000E-01   4.000000E-01   4.000000E-01   4.000000E-01   4.000000E-01   4.000000E-01   4.000000E-01   4.000000E-01   4.000000E-01   4.000000E-01   4.000000E-01   4.000000E-01   4.000000E-01   4.000000E-01   4.000000E-01   4.000000E-01   4.000000E-01   4.000000E-01   4.000000E-01   4.000000E-01   4.000000E-01   4.000000E-01   4.000000E-01   4.000000E-01   4.000000E-01   4.000000E-01   4.000000E-01   4.000000E-01   4.000000E-01   4.000000E-01   4.000000E-01   4.000000E-01   4.000000E-01   4.000000E-01   4.000000E-01   4.000000E-01   4.000000E-01   4.000000E-01   4.000000E-01   4.000000E-01   4.000000E-01   4.000000E-01   4.000000E-01   4.000000E-01   4.000000E-01   4.000000E-01   4.000000E-01   4.000000E-01   4.000000E-01   4.000000E-01   4.000000E-01   4.000000E-01   4.000000E-01   4.000000E-01   4.000000E-01   4.000000E-01   4.000000E-01   4.000000E-01   4.000000E-01   4.000000E-01   4.000000E-01   4.000000E-01   4.000000E-01   4.000000E-01   4.000000E-01   4.000000E-01   4.000000E-01   4.000000E-01   4.000000E-01   4.000000E-01   4.000000E-01   4.000000E-01   4.000000E-01   4.000000E-01   4.000000E-01   4.000000E-01   4.000000E-01   4.000000E-01   4.000000E-01   