<?xml version="1.0"?>
<!-- Time =  1.8007176260280169E+00s -->
<VTKFile type="PolyData" version="0.1" byte_order="LittleEndian">
<PolyData>
<Piece NumberOfPoints="0000002400" NumberOfVerts="0" NumberOfLines="0" NumberOfStrips="0" NumberOfPolys="0">
<Points>
<DataArray type="Float32" Name="Position" NumberOfComponents="3" format="ascii">
  6.759790E-01   1.996618E-01   2.229515E-01   9.569281E-01   4.497185E+00   7.092029E-01   6.636055E+00   4.761242E+00   2.243759E+00   6.212855E+00   5.343369E+00   7.276676E-01   7.055581E-01   6.747831E-01   2.707264E+00   7.258785E+00   1.697926E+00   7.539285E-01   1.175965E+01   3.992807E-01   4.160123E+00   9.941911E+00   1.065878E+00   4.943038E+00   1.021974E+01   1.913927E-01   4.213273E+00   1.001787E+01   1.380709E+01   4.758158E+00   1.998217E+00   2.135728E-01   3.413050E+00   1.052467E+01   1.504642E+01   3.615052E+00   4.342680E+00   7.708373E+00   9.220791E-01   4.863662E+00   1.019567E+00   2.093921E+00   6.738328E+00   3.444215E+00   2.050490E+00   9.667026E+00   8.730286E-01   3.881800E-01   2.661768E+00   3.271237E-01   2.652419E-01   7.457921E+00   4.626626E+00   1.107898E+00   6.804633E+00   2.180735E-01   3.140658E+00   1.099966E+01   6.769337E-01   4.198291E+00   8.410014E+00   9.610966E+00   9.200428E-01   4.786240E+00   1.051805E+00   4.179331E+00   7.011043E+00   6.812246E+00   4.474881E+00   3.589845E+00   2.823780E-01   3.925849E+00   4.036694E+00   5.799536E-01   1.821881E+00   1.465908E+01   6.924714E-01   4.849193E+00   1.123887E+01   6.325953E-01   3.397430E+00   6.379268E+00   4.455555E-01   2.010979E-01   1.038391E+00   2.206319E-01   1.316329E+00   4.846743E-01   1.054913E+00   1.575589E+00   1.275054E+01   2.041039E+01   4.274864E+00   5.028752E+00   6.231968E-01   2.484293E-01   6.831757E+00   1.498385E+01   4.615691E+00   5.417770E+00   1.979363E-01   1.498106E+00   5.257134E+00   3.771052E+00   1.828193E+00   2.221597E+00   2.280728E-01   3.041171E+00   7.686532E+00   6.358930E-01   2.073520E+00   4.086257E+00   8.943259E+00   1.955669E+00   4.739364E+00   1.035601E+00   1.131676E+00   6.573683E+00   1.147374E+00   4.361776E+00   5.990689E+00   9.031677E-01   4.534117E+00   1.229548E+01   8.219132E-01   3.182704E+00   8.565008E+00   3.507152E-01   2.034652E-01   2.026881E+00   2.094357E-01   1.386916E+00   6.737704E+00   6.629798E-01   4.707098E+00   1.163021E+01   2.051803E-01   4.719868E+00   6.540844E+00   7.203297E+00   7.822988E-01   5.988667E+00   1.871505E+01   3.910673E+00   7.672529E+00   2.596131E+00   3.579768E+00   1.076784E+01   3.231930E+00   4.552827E+00   6.407357E+00   1.997001E-01   2.867857E+00   8.788605E+00   2.689247E-01   9.425067E-01   2.769994E+00   5.626763E-01   1.473122E+00   6.171022E+00   4.128924E+00   2.729826E+00   3.595163E+00   6.361781E-01   3.605533E+00   9.302552E+00   7.117921E-01   2.514488E+00   4.101306E+00   2.055231E-01   2.223449E-01   4.564661E+00   1.998546E-01   2.101607E-01   8.627316E+00   1.473033E+00   1.991166E-01   1.379580E+01   1.537462E+01   9.264581E-01   1.336783E+01   4.386634E-01   2.846638E+00   4.591144E+00   5.637512E-01   5.288743E-01   6.328327E+00   3.704608E-01   1.169068E+00   2.630512E+00   5.618957E-01   3.126917E+00   5.030542E+00   1.795151E+01   4.269628E-01   4.985522E+00   4.554265E+00   3.813400E+00   8.988767E+00   2.377477E-01   4.412827E+00   1.285424E+01   2.752318E+00   1.802295E+00   1.926161E+00   6.405398E-01   2.419697E+00   6.001267E+00   1.157101E+00   3.526737E+00   7.292309E+00   2.235507E+00   1.261755E+00   1.149111E+01   2.388232E+00   3.368913E+00   3.597877E+00   8.473197E-01   3.946771E+00   4.976041E+00   8.316554E+00   3.316803E+00   1.433302E+01   9.351843E-01   1.338280E+00   1.346453E+01   2.109034E+00   2.558546E+00   1.052584E+01   1.453433E+01   2.004254E+00   9.853801E+00   1.994623E-01   3.962966E+00   1.592076E+00   2.254368E-01   1.147315E+00   3.090567E+00   1.943673E-01   2.786865E+00   6.443656E+00   1.225250E+01   3.809240E+00   8.730103E+00   2.219430E+00   5.568303E-01   5.636563E+00   5.437683E-01   2.756662E+00   7.814061E+00   1.769412E+01   4.245303E+00   4.659634E+00   1.754030E+00   2.037912E+00   6.404608E+00   2.024948E+00   1.337442E+00   3.367436E+00   1.276772E+00   2.157364E+00   3.110891E+00   9.528731E-01   2.590775E+00   1.662544E+00   1.480920E+00   1.204362E+00   5.844492E+00   5.540388E-01   1.949461E+00   3.869919E+00   5.510755E-01   3.109046E-01   1.235911E+01   8.351046E-01   9.036193E-01   1.443027E+01   1.408470E+01   4.065340E+00   1.180312E+01   1.341227E+01   2.514723E+00   5.723453E+00   2.045892E-01   3.398309E+00   1.208596E+01   1.470338E+01   6.387779E-01   2.077841E-01   2.221124E-01   4.786932E+00   4.164406E+00   8.468815E-01   2.380238E+00   2.385161E-01   5.392986E-01   4.510080E+00   6.800092E+00   1.614079E+00   8.469281E-01   3.040694E+00   8.377030E+00   1.309120E+00   5.249681E+00   2.098336E-01   2.263614E+00   1.159381E+01   4.437638E-01   3.400768E-01   2.434331E-01   6.211120E-01   3.145910E+00   6.529358E+00   5.327395E-01   3.394797E+00   2.452433E+00   2.182368E-01   1.548935E+00   5.847001E+00   1.975885E+01   1.403358E+00   1.204356E+01   3.080609E+00   3.173849E+00   4.109062E+00   1.108366E+01   2.569247E+00   2.867179E+00   7.526019E-01   2.234612E+00   3.544534E+00   3.555848E+00   7.474738E-01   5.854393E+00   2.325075E-01   3.017241E+00   4.186196E+00   1.323727E+00   4.971292E+00   5.149830E+00   1.134013E+00   2.067033E-01   5.347818E+00   5.698707E-01   1.742029E+00   6.035409E+00   3.992572E+00   2.018008E+00   2.289072E+00   2.088149E-01   4.109101E+00   7.745677E+00   1.087240E+01   2.358617E+00   1.780766E+00   3.920629E+00   8.582204E-01   4.363406E+00   1.998668E-01   2.034499E+00   6.522647E+00   7.522306E-01   9.642234E-01   7.233755E+00   2.370594E+01   4.134876E+00   5.987783E+00   1.061874E+01   3.339925E+00   5.420279E+00   2.128589E-01   3.739746E+00   1.472882E+01   1.524889E+00   4.774306E+00   6.241808E+00   2.042861E+01   3.109245E+00   6.025439E+00   1.673843E+00   4.486983E+00   4.048716E+00   1.205329E+01   8.944635E-01   7.696600E+00   7.576273E-01   3.405455E+00   4.966441E+00   5.904826E-01   7.843030E-01   8.809877E+00   4.020725E+00   2.474236E+00   2.631844E+00   5.773865E-01   6.106027E-01   6.585115E+00   2.380807E+00   1.192985E+00   1.134832E+01   8.263825E-01   4.906096E+00   6.894816E+00   5.948836E-01   7.505435E-01   6.057928E+00   2.514103E+00   1.118878E+00   1.012854E+00   7.545335E+00   3.305035E+00   1.299409E+01   5.489076E-01   2.340108E+00   1.406829E+00   2.620518E-01   2.350281E-01   5.767243E+00   9.970716E-01   1.422927E+00   6.502631E+00   6.795916E+00   5.028449E-01   7.343193E+00   4.075531E+00   2.600084E+00   6.498335E+00   1.086570E+01   3.409971E-01   8.128050E-01   2.495288E+00   4.487163E+00   6.066622E+00   6.598650E-01   1.365570E+00   7.262989E+00   6.171619E-01   4.363673E+00   1.499233E+00   6.733865E+00   1.517886E+00   5.219016E+00   5.676439E-01   2.819334E+00   7.550582E+00   9.748190E+00   1.202382E+00   9.034003E+00   1.088244E+00   4.592390E+00   8.745191E-01   1.076486E+00   9.169002E-01   8.606529E+00   1.408118E+01   4.893633E+00   3.222262E+00   5.137593E-01   4.683943E+00   2.837713E+00   2.114369E-01   4.773745E+00   1.968555E+00   1.268085E+01   1.932793E+00   3.940144E+00   8.519269E-01   4.150875E+00   1.036591E+01   7.091542E-01   2.833103E+00   1.061034E+01   1.275588E+01   2.387379E+00   2.149861E-01   6.282998E-01   2.102445E-01   2.209153E-01   3.448446E-01   1.779343E+00   5.688752E-01   2.084180E-01   1.983391E+00   1.090736E+00   1.147044E+00   5.828591E-01   3.201959E+00   4.384093E-01   3.790513E+00   1.029331E+01   2.957673E+00   2.294532E+00   7.194119E+00   4.214906E-01   3.356924E+00   7.080013E+00   1.372210E+00   2.457052E-01   5.588034E+00   6.194120E+00   2.739517E+00   9.036263E+00   7.221970E+00   2.172556E-01   6.308169E+00   2.010199E-01   5.148707E-01   1.470097E+00   5.494940E-01   9.207429E-01   2.802122E+00   5.011482E+00   4.986176E+00   6.532346E+00   1.267439E+01   2.172516E+00   3.312331E+00   2.014688E-01   1.466200E+00   1.232612E+01   5.900684E-01   1.872310E+00   1.290325E+00   5.089198E-01   5.358729E-01   1.444135E+01   1.692185E+00   4.500000E-01   7.696726E+00   1.030351E+01   4.068295E+00   1.020341E+01   9.973045E-01   3.413408E+00   1.360624E+01   2.897889E+00   2.931620E+00   1.087491E+01   8.774841E+00   4.597492E-01   5.652005E+00   3.055228E-01   2.273788E+00   5.947147E+00   7.808508E-01   3.111037E+00   4.632088E+00   4.039097E+00   8.223737E-01   1.836089E+00   4.033651E-01   8.752525E-01   8.288972E+00   2.386908E-01   4.577480E+00   6.311875E+00   3.887119E-01   2.512919E+00   9.633473E-01   2.181863E-01   5.677305E-01   8.464758E+00   3.594289E-01   2.620541E+00   1.184254E+01   7.681221E+00   5.410378E-01   4.541558E+00   1.787011E+01   3.646305E+00   1.154068E+00   1.703705E+00   1.923942E+00   5.599782E+00   3.536023E+00   2.076154E+00   1.362051E+01   9.697118E-01   3.686707E+00   7.608861E+00   1.297990E+00   3.572316E+00   2.555285E+00   5.988570E-01   4.812891E+00   1.326364E+01   8.520736E+00   3.996984E+00   2.191151E+00   6.613857E-01   6.420918E-01   3.342189E+00   3.497645E-01   6.653814E-01   9.999176E+00   7.420544E-01   1.875659E+00   1.209335E+01   6.076835E-01   1.131069E+00   9.691387E+00   8.118593E-01   1.326079E+00   4.346903E+00   2.218370E-01   5.588951E-01   3.786618E+00   8.030592E+00   2.586656E+00   8.332857E-01   2.337900E-01   1.682798E+00   5.510735E+00   7.902222E-01   3.264956E+00   4.494263E+00   2.086704E-01   1.425001E+00   1.039936E+01   1.202439E+01   1.636453E+00   1.947094E+00   1.215041E+01   4.885967E+00   8.139338E+00   7.741398E-01   3.143006E+00   1.056380E+00   9.836876E-01   4.813282E+00   7.554702E+00   1.209636E+01   3.967082E+00   1.003363E+01   3.758638E+00   3.998080E+00   6.188830E+00   1.270466E+00   2.267343E+00   8.027574E+00   2.317433E-01   4.628238E-01   8.282056E+00   1.089111E+01  
[...]
<PointData Scalars="Diameter" Vectors="Velocity">
<DataArray type="Float32" Name="Diameter" format="ascii">
  4.000000E-01   4.000000E-01   4.000000E-01   4.000000E-01   4.000000E-01   4.000000E-01   4.000000E-01   4.000000E-01   4.000000E-01   4.000000E-01   4.000000E-01   4.000000E-01   4.000000E-01   4.000000E-01   4.000000E-01   4.000000E-01   4.000000E-01   4.000000E-01   4.000000E-01   4.000000E-01   4.000000E-01   4.000000E-01   4.000000E-01   4.000000E-01   4.000000E-01   4.000000E-01   4.000000E-01   4.000000E-01   4.000000E-01   4.000000E-01   4.000000E-01   4.000000E-01   4.000000E-01   4.000000E-01   4.000000E-01   4.000000E-01   4.000000E-01   4.000000E-01   4.000000E-01   4.000000E-01   4.000000E-01   4.000000E-01   4.000000E-01   4.000000E-01   4.000000E-01   4.000000E-01   4.000000E-01   4.000000E-01   4.000000E-01   4.000000E-01   4.000000E-01   4.000000E-01   4.000000E-01   4.000000E-01   4.000000E-01   4.000000E-01   4.000000E-01   4.000000E-01   4.000000E-01   4.000000E-01   4.000000E-01   4.000000E-01   4.000000E-01   4.000000E-01   4.000000E-01   4.000000E-01   4.000000E-01   4.000000E-01   4.000000E-01   4.000000E-01   4.000000E-01   4.000000E-01   4.000000E-01   4.000000E-01   4.000000E-01   4.000000E-01   4.000000E-01   4.000000E-01   4.000000E-01   4.000000E-01   4.000000E-01   4.000000E-01   4.000000E-01   4.000000E-01   4.000000E-01   4.000000E-01   4.000000E-01   4.000000E-01   4.000000E-01   4.000000E-01   4.000000E-01   4.000000E-01   4.000000E-01   4.000000E-01   4.000000E-01   4.000000E-01   4.000000E-01   4.000000E-01   4.000000E-01   4.000000E-01   4.000000E-01   4.000000E-01   4.000000E-01   4.000000E-01   4.000000E-01   4.000000E-01   4.000000E-01   4.000000E-01   4.000000E-01   4.000000E-01   4.000000E-01   4.000000E-01   4.000000E-01   4.000000E-01   4.000000E-01   4.000000E-01   4.000000E-01   4.000000E-01   4.000000E-01   4.000000E-01   4.000000E-01   4.000000E-01   4.000000E-01   4.000000E-01   4.000000E-01   4.000000E-01   4.000000E-01   4.000000E-01   4.000000E-01   4.000000E-01   4.000000E-01   4.000000E-01   4.000000E-01   4.000000E-01   4.000000E-01   4.000000E-01   4.000000E-01   4.000000E-01   4.000000E-01   4.000000E-01   4.000000E-01   4.000000E-01   4.000000E-01   4.000000E-01   4.000000E-01   4.000000E-01   4.000000E-01   4.000000E-01   4.000000E-01   4.000000E-01   4.000000E-01   4.000000E-01   4.000000E-01   4.000000E-01   4.000000E-01   4.000000E-01   4.000000E-01   4.000000E-01   4.000000E-01   4.000000E-01   4.000000E-01   4.000000E-01   4.000000E-01   4.000000E-01   4.000000E-01   4.000000E-01   4.000000E-01   4.000000E-01   4.000000E-01   4.000000E-01   4.000000E-01   4.000000E-01   4.000000E-01   4.000000E-01   4.000000E-01   4.000000E-01   4.000000E-01   4.000000E-01   4.000000E-01   4.000000E-01   4.000000E-01   4.000000E-01   4.000000E-01   4.000000E-01   4.000000E-01   4.000000E-01   4.000000E-01   4.000000E-01   4.000000E-01   4.000000E-01   4.000000E-01   4.000000E-01   4.000000E-01   4.000000E-01   4.000000E-01   4.000000E-01   4.000000E-01   4.000000E-01   4.000000E-01   4.000000E-01   4.000000E-01   4.000000E-01   4.000000E-01   4.000000E-01   4.000000E-01   4.000000E-01   4.000000E-01   4.000000E-01   4.000000E-01   4.000000E-01   4.000000E-01   4.000000E-01   4.000000E-01   4.000000E-01   4.000000E-01   4.000000E-01   4.000000E-01   4.000000E-01   4.000000E-01   4.000000E-01   4.000000E-01   4.000000E-01   4.000000E-01   4.000000E-01   4.000000E-01   4.000000E-01   4.000000E-01   4.000000E-01   4.000000E-01   4.000000E-01   4.000000E-01   4.000000E-01   4.000000E-01   4.000000E-01   4.000000E-01   4.000000E-01   4.000000E-01   4.000000E-01   4.000000E-01   4.000000E-01   4.000000E-01   4.000000E-01   4.000000E-01   4.000000E-01   4.000000E-01   4.000000E-01   4.000000E-01   4.000000E-01   4.000000E-01   4.000000E-01   4.000000E-01   4.000000E-01   4.000000E-01   4.000000E-01   4.000000E-01   4.000000E-01   4.000000E-01   4.000000E-01   4.000000E-01   4.000000E-01   4.000000E-01   4.000000E-01   4.000000E-01   4.000000E-01   4.000000E-01   4.000000E-01   4.000000E-01   4.000000E-01   4.000000E-01   4.000000E-01   4.000000E-01   4.000000E-01   4.000000E-01   4.000000E-01   4.000000E-01   4.000000E-01   4.000000E-01   4.000000E-01   4.000000E-01   4.000000E-01   4.000000E-01   4.000000E-01   4.000000E-01   4.000000E-01   4.000000E-01   4.000000E-01   4.000000E-01   4.000000E-01   4.000000E-01   4.000000E-01   4.000000E-01   4.000000E-01   4.000000E-01   4.000000E-01   4.000000E-01   4.000000E-01   4.000000E-01   4.000000E-01   4.000000E-01   4.000000E-01   4.000000E-01   4.000000E-01   4.000000E-01   4.000000E-01   4.000000E-01   4.000000E-01   4.000000E-01   4.000000E-01   4.000000E-01   4.000000E-01   4.000000E-01   4.000000E-01   4.000000E-01   4.000000E-01   4.000000E-01   4.000000E-01   4.000000E-01   4.000000E-01   4.000000E-01   4.000000E-01   4.000000E-01   4.000000E-01   4.000000E-01   4.000000E-01   4.000000E-01   4.000000E-01   4.000000E-01   4.000000E-01   4.000000E-01   4.000000E-01   4.000000E-01   4.000000E-01   4.000000E-01   4.000000E-01   4.000000E-01   4.000000E-01   4.000000E-01   4.000000E-01   4.000000E-01   4.000000E-01   4.000000E-01   4.000000E-01   4.000000E-01   4.000000E-01   4.000000E-01   4.000000E-01   4.000000E-01   4.000000E-01   4.000000E-01   4.000000E-01   4.000000E-01   4.000000E-01   4.000000E-01   4.000000E-01   4.000000E-01   4.000000E-01   4.000000E-01   4.000000E-01   4.000000E-01   4.000000E-01   4.000000E-01   4.000000E-01   4.000000E-01   4.000000E-01   4.000000E-01   4.000000E-01   4.000000E-01   4.000000E-01   4.000000E-01   4.000000E-01   4.000000E-01   4.000000E-01   4.000000E-01   4.000000E-01   4.000000E-01   4.000000E-01   4.000000E-01   4.000000E-01   4.000000E-01   4.000000E-01   4.000000E-01   4.000000E-01   4.000000E-01   4.000000E-01   4.000000E-01   4.000000E-01   4.000000E-01   4.000000E-01   4.000000E-01   4.000000E-01   4.000000E-01   4.000000E-01   4.000000E-01   4.000000E-01   4.000000E-01   4.000000E-01   4.000000E-01   4.000000E-01   4.000000E-01   4.000000E-01   4.000000E-01   4.000000E-01   4.000000E-01   4.000000E-01   4.000000E-01   4.000000E-01   4.000000E-01   4.000000E-01   4.000000E-01   4.000000E-01   4.000000E-01   4.000000E-01   4.000000E-01   4.000000E-01   4.000000E-01   4.000000E-01   4.000000E-01   4.000000E-01   4.000000E-01   4.000000E-01   4.000000E-01   4.000000E-01   4.000000E-01   4.000000E-01   4.000000E-01   4.000000E-01   4.000000E-01   4.000000E-01   4.000000E-01   4.000000E-01   4.000000E-01   4.000000E-01   4.000000E-01   4.000000E-01   4.000000E-01   4.000000E-01   4.000000E-01   4.000000E-01   4.000000E-01   4.000000E-01   4.000000E-01   4.000000E-01   4.000000E-01   4.000000E-01   4.000000E-01   4.000000E-01   4.000000E-01   4.000000E-01   4.000000E-01   4.000000E-01   4.000000E-01   4.000000E-01   4.000000E-01   4.000000E-01   4.000000E-01   4.000000E-01   4.000000E-01   4.000000E-01   4.000000E-01   4.000000E-01   4.000000E-01   4.000000E-01   4.000000E-01   4.000000E-01   4.000000E-01   4.000000E-01   4.000000E-01   4.000000E-01   4.000000E-01   4.000000E-01   4.000000E-01   4.000000E-01   4.000000E-01   4.000000E-01   4.000000E-01   4.000000E-01   4.000000E-01   4.000000E-01   4.000000E-01   4.000000E-01   4.000000E-01   4.000000E-01   4.000000E-01   4.000000E-01   4.000000E-01   4.000000E-01   4.000000E-01   4.000000E-01   4.000000E-01   4.000000E-01   4.000000E-01   4.000000E-01   4.000000E-01   4.000000E-01   4.000000E-01   4.000000E-01   4.000000E-01   4.000000E-01   4.000000E-01   4.000000E-01   4.000000E-01   4.000000E-01   4.000000E-01   4.000000E-01   4.000000E-01   4.000000E-01   4.000000E-01   4.000000E-01   4.000000E-01   4.000000E-01   4.000000E-01   4.000000E-01   4.000000E-01   4.000000E-01   4.000000E-01   4.000000E-01   4.000000E-01   4.000000E-01   4.000000E-01   4.000000E-01   4.000000E-01   4.000000E-01   4.000000E-01   4.000000E-01   4.000000E-01   4.000000E-01   4.000000E-01   4.000000E-01   4.000000E-01   4.000000E-01   4.000000E-01   4.000000E-01   4.000000E-01   4.000000E-01   4.000000E-01   4.000000E-01   4.000000E-01   4.000000E-01   4.000000E-01   4.000000E-01   4.000000E-01   4.000000E-01   4.000000E-01   4.000000E-01   4.000000E-01   4.000000E-01   4.000000E-01   4.000000E-01   4.000000E-01   4.000000E-01   4.000000E-01   4.000000E-01   4.000000E-01   4.000000E-01   4.000000E-01   4.000000E-01   4.000000E-01   4.000000E-01   4.000000E-01   4.000000E-01   4.000000E-01   4.000000E-01   4.000000E-01   4.000000E-01   4.000000E-01   4.000000E-01   4.000000E-01   4.000000E-01   4.000000E-01   4.000000E-01   4.000000E-01   4.000000E-01   4.000000E-01   4.000000E-01   4.000000E-01   4.000000E-01   4.000000E-01   4.000000E-01   4.000000E-01   4.000000E-01   4.000000E-01   4.000000E-01   4.000000E-01   4.000000E-01   4.000000E-01   4.000000E-01   4.000000E-01   4.000000E-01   4.000000E-01   4.000000E-01   4.000000E-01   4.000000E-01   4.000000E-01   4.000000E-01   4.000000E-01   4.000000E-01   4.000000E-01   4.000000E-01   4.000000E-01   4.000000E-01   4.000000E-01   4.000000E-01   4.000000E-01   4.000000E-01   4.000000E-01   4.000000E-01   4.000000E-01   4.000000E-01   4.000000E-01   4.000000E-01   4.000000E-01   4.000000E-01   4.000000E-01   4.000000E-01   4.000000E-01   4.000000E-01   4.000000E-01   4.000000E-01   4.000000E-01   4.000000E-01   4.000000E-01   4.000000E-01   4.000000E-01   4.000000E-01   4.000000E-01   4.000000E-01   4.000000E-01   4.000000E-01   4.000000E-01   4.000000E-01   4.000000E-01   4.000000E-01   4.000000E-01   4.000000E-01   4.000000E-01   4.000000E-01   4.000000E-01   4.000000E-01   4.000000E-01   4.000000E-01   4.000000E-01   4.000000E-01   4.000000E-01   4.000000E-01   4.000000E-01   4.000000E-01   4.000000E-01   4.000000E-01   4.000000E-01   4.000000E-01   4.000000E-01   4.000000E-01   4.000000E-01   4.000000E-01   4.000000E-01   4.000000E-01   4.000000E-01   4.000000E-01   4.000000E-01   4.000000E-01   4.000000E-01   4.000000E-01   4.000000E-01   4.000000E-01   4.000000E-01   4.000000E-01   4.000000E-01   4.000000E-01   4.000000E-01   4.000000E-01   4.000000E-01   4.000000E-01   4.000000E-01   4.000000E-01   4.000000E-01   4.000000E-01   4.000000E-01   4.000000E-01   4.000000E-01   4.000000E-01   4.000000E-01   4.000000E-01   4.000000E-01   4.000000E-01   4.000000E-01   4.000000E-01   4.000000E-01   4.000000E-01   4.000000E-01   4.000000E-01   4.000000E-01   4.000000E-01   4.000000E-01   4.000000E-01   4.000000E-01   4.000000E-01   4.000000E-01   4.000000E-01   4.000000E-01   4.000000E-01   4.000000E-01   4.000000E-01   4.000000E-01   4.000000E-01   4.000000E-01   4.000000E-01   4.000000E-01   4.000000E-01   4.000000E-01   4.000000E-01   4.000000E-01   4.000000E-01   4.000000E-01   4.000000E-01   4.000000E-01   4.000000E-01   4.000000E-01   4.000000E-01   4.000000E-01   4.000000E-01   4.000000E-01   4.000000E-01   4.000000E-01   4.000000E-01   4.000000E-01   4.000000E-01   4.000000E-01   4.000000E-01   4.000000E-01   4.000000E-01   4.000000E-01   4.000000E-01   4.000000E-01   4.000000E-01   4.000000E-01   4.000000E-01   4.000000E-01   4.000000E-01   4.000000E-01   4.000000E-01   4.000000E-01   4.000000E-01   4.000000E-01   4.000000E-01   4.000000E-01   4.000000E-01   4.000000E-01   4.000000E-01   4.000000E-01   4.000000E-01   4.000000E-01   4.000000E-01   4.000000E-01   4.000000E-01   4.000000E-01   4.000000E-01   4.000000E-01   4.000000E-01   4.000000E-01   4.000000E-01   4.000000E-01   4.000000E-01   4.000000E-01   4.000000E-01   4.000000E-01   4.000000E-01   4.000000E-01   4.000000E-01   4.000000E-01   4.000000E-01   4.000000E-01   4.000000E-01   4.000000E-01   4.000000E-01   4.000000E-01   4.000000E-01   4.000000E-01   4.000000E-01   4.000000E-01   4.000000E-01   4.000000E-01   4.000000E-01   4.000000E-01   4.000000E-01   4.000000E-01   4.000000E-01   4.000000E-01   4.000000E-01   4.000000E-01   4.000000E-01   4.000000E-01   4.000000E-01   4.000000E-01   4.000000E-01   4.000000E-01   4.000000E-01   4.000000E-01   4.000000E-01   4.000000E-01   4.000000E-01   4.000000E-01   4.000000E-01   4.000000E-01   4.000000E-01   4.000000E-01   4.000000E-01   4.000000E-01   4.000000E-01   4.000000E-01   4.000000E-01   4.000000E-01   4.000000E-01   4.000000E-01   4.000000E-01   4.000000E-01   4.000000E-01   4.000000E-01   4.000000E-01   4.000000E-01   4.000000E-01   4.000000E-01   4.000000E-01   4.000000E-01   4.000000E-01   4.000000E-01   4.000000E-01   4.000000E-01   4.000000E-01   4.000000E-01   4.000000E-01   4.000000E-01   4.000000E-01   4.000000E-01   4.000000E-01   4.000000E-01   4.000000E-01   4.000000E-01   4.000000E-01   4.000000E-01   4.000000E-01   4.000000E-01   4.000000E-01   4.000000E-01   4.000000E-01   4.000000E-01   4.000000E-01   4.000000E-01   4.000000E-01   4.000000E-01   4.000000E-01   4.000000E-01   4.000000E-01   4.000000E-01   4.000000E-01   4.000000E-01   4.000000E-01   4.000000E-01   4.000000E-01   4.000000E-01   4.000000E-01   4.000000E-01   4.000000E-01   4.000000E-01   4.000000E-01   4.000000E-01   4.000000E-01   4.000000E-01   4.000000E-01   4.000000E-01   4.000000E-01   4.000000E-01   4.000000E-01   4.000000E-01   4.000000E-01   4.000000E-01   4.000000E-01   4.000000E-01   4.000000E-01   4.000000E-01   4.000000E-01   4.000000E-01   4.000000E-01   4.000000E-01   4.000000E-01   4.000000E-01   4.000000E-01   4.000000E-01   4.000000E-01   4.000000E-01   4.000000E-01   4.000000E-01   4.000000E-01   4.000000E-01   4.000000E-01   4.000000E-01   4.000000E-01   4.000000E-01   4.000000E-01   4.000000E-01   4.000000E-01   4.000000E-01   4.000000E-01   4.000000E-01   4.000000E-01   4.000000E-01   4.000000E-01   4.000000E-01   4.000000E-01   4.000000E-01   4.000000E-01   4.000000E-01   4.000000E-01   4.000000E-01   4.000000E-01   4.000000E-01   4.000000E-01   4.000000E-01   4.000000E-01   4.000000E-01   4.000000E-01   4.000000E-01   4.000000E-01   4.000000E-01   4.000000E-01   4.000000E-01   4.000000E-01   4.000000E-01   4.000000E-01   4.000000E-01   4.000000E-01   4.000000E-01   4.000000E-01   4.000000E-01   4.000000E-01   4.000000E-01   4.000000E-01   4.000000E-01   4.000000E-01   4.000000E-01   4.000000E-01   4.000000E-01   4.000000E-01   4.000000E-01   4.000000E-01   4.000000E-01   4.000000E-01   4.000000E-01   4.000000E-01   4.000000E-01   4.000000E-01   4.000000E-01   4.000000E-01   4.000000E-01   4.000000E-01   4.000000E-01   4.000000E-01   4.000000E-01   4.000000E-01   4.000000E-01   4.000000E-01   4.000000E-01   4.000000E-01   4.000000E-01   4.000000E-01   4.000000E-01   4.000000E-01   4.000000E-01   4.000000E-01   4.000000E-01   4.000000E-01   4.000000E-01   4.000000E-01   4.000000E-01   4.000000E-01   4.000000E-01   4.000000E-01   4.000000E-01   4.000000E-01   4.000000E-01   4.000000E-01   4.000000E-01   4.000000E-01   4.000000E-01   4.000000E-01   4.000000E-01   4.000000E-01   4.000000E-01   4.000000E-01   4.000000E-01   4.000000E-01   4.000000E-01   4.000000E-01   4.000000E-01   4.000000E-01   4.000000E-01   4.000000E-01   4.000000E-01   4.000000E-01   4.000000E-01   4.000000E-01   4.000000E-01   4.000000E-01   4.000000E-01   4.000000E-01   4.000000E-01   4.000000E-01   4.000000E-01   4.000000E-01   4.000000E-01   4.000000E-01   4.000000E-01   4.000000E-01   4.000000E-01   4.000000E-01   4.000000E-01   4.000000E-01   4.000000E-01   4.000000E-01   4.000000E-01   4.000000E-01   4.000000E-01   4.000000E-01   4.000000E-01   4.000000E-01   4.000000E-01   4.000000E-01   4.000000E-01   4.000000E-01   4.000000E-01   4.000000E-01   4.000000E-01   4.000000E-01   4.000000E-01   4.000000E-01   4.000000E-01   4.000000E-01   4.000000E-01   4.000000E-01   4.000000E-01   4.000000E-01   4.000000E-01   4.000000E-01   4.000000E-01   4.000000E-01   4.000000E-01   4.000000E-01   4.000000E-01   4.000000E-01   4.000000E-01   4.000000E-01   4.000000E-01   4.000000E-01   4.000000E-01   4.000000E-01   4.000000E-01   4.000000E-01   4.000000E-01   4.000000E-01   4.000000E-01   4.000000E-01   4.000000E-01   4.000000E-01   4.000000E-01   4.000000E-01   4.000000E-01   4.000000E-01   4.000000E-01   4.000000E-01   4.000000E-01   4.000000E-01   4.000000E-01   4.000000E-01   4.000000E-01   4.000000E-01   4.000000E-01   4.000000E-01   4.000000E-01   4.000000E-01   4.000000E-01   4.000000E-01   4.000000E-01   4.000000E-01   4.000000E-01   4.000000E-01   4.000000E-01   4.000000E-01   4.000000E-01   4.000000E-01   4.000000E-01   4.000000E-01   4.000000E-01   4.000000E-01   4.000000E-01   4.000000E-01   4.000000E-01   4.000000E-01   4.000000E-01   4.000000E-01   4.000000E-01   4.000000E-01   4.000000E-01   4.000000E-01   4.000000E-01   4.000000E-01   4.000000E-01   4.000000E-01   4.000000E-01   4.000000E-01   4.000000E-01   4.000000E-01   4.000000E-01   4.000000E-01   4.000000E-01   4.000000E-01   4.000000E-01   4.000000E-01   4.000000E-01   4.000000E-01   4.000000E-01   4.000000E-01   4.000000E-01   4.000000E-01   4.000000E-01   4.000000E-01   4.000000E-01   4.000000E-01   4.000000E-01   4.000000E-01   4.000000E-01   4.000000E-01   4.000000E-01   4.000000E-01   4.000000E-01   4.000000E-01   4.000000E-01   4.000000E-01   4.000000E-01   4.000000E-01   4.000000E-01   4.000000E-01   4.000000E-01   4.000000E-01   4.000000E-01   4.000000E-01   4.000000E-01   4.000000E-01   4.000000E-01   4.000000E-01   4.000000E-01   4.000000E-01   4.000000E-01   4.000000E-01   4.000000E-01   4.000000E-01   4.000000E-01   4.000000E-01   4.000000E-01   4.000000E-01   4.000000E-01   4.000000E-01   4.000000E-01   4.000000E-01   4.000000E-01   4.000000E-01   4.000000E-01   4.000000E-01   4.000000E-01   4.000000E-01   4.000000E-01   4.000000E-01   4.000000E-01   4.000000E-01   4.000000E-01   4.000000E-01   4.000000E-01   4.000000E-01   4.000000E-01   4.000000E-01   4.000000E-01   4.000000E-01   4.000000E-01   4.000000E-01   4.000000E-01   4.000000E-01   4.000000E-01   4.000000E-01   4.000000E-01   4.000000E-01   4.000000E-01   4.000000E-01   4.000000E-01   4.000000E-01   4.000000E-01   4.000000E-01   4.000000E-01   4.000000E-01   4.000000E-01   4.000000E-01   4.000000E-01   4.000000E-01   4.000000E-01   4.000000E-01   4.000000E-01   4.000000E-01   4.000000E-01   4.000000E-01   4.000000E-01   4.000000E-01   4.000000E-01   4.000000E-01   4.000000E-01   4.000000E-01   4.000000E-01   4.000000E-01   4.000000E-01   4.000000E-01   4.000000E-01   4.000000E-01   4.000000E-01   4.000000E-01   4.000000E-01   4.000000E-01   4.000000E-01   4.000000E-01   4.000000E-01   4.000000E-01   4.000000E-01   4.000000E-01   4.000000E-01   4.000000E-01   4.000000E-01   4.000000E-01   4.000000E-01   4.000000E-01   4.000000E-01   4.000000E-01   4.000000E-01   4.000000E-01   4.000000E-01   4.000000E-01   4.000000E-01   4.000000E-01   4.000000E-01   4.000000E-01   4.000000E-01   4.000000E-01   4.000000E-01   4.000000E-01   4.000000E-01   4.000000E-01   4.000000E-01   4.000000E-01   4.000000E-01   4.000000E-01   4.000000E-01   4.000000E-01   4.000000E-01   4.000000E-01   4.000000E-01   4.000000E-01   4.000000E-01   4.000000E-01   4.000000E-01   4.000000E-01   4.000000E-01   4.000000E-01   4.000000E-01   4.000000E-01   4.000000E-01   4.000000E-01   4.000000E-01   4.000000E-01   4.000000E-01   4.000000E-01   4.000000E-01   4.000000E-01   4.000000E-01   4.000000E-01   4.000000E-01   4.000000E-01   4.000000E-01   4.000000E-01   4.000000E-01   4.000000E-01   4.000000E-01   4.000000E-01   4.000000E-01   4.000000E-01   4.000000E-01   4.000000E-01   4.000000E-01   4.000000E-01   4.000000E-01   4.000000E-01   4.000000E-01   4.000000E-01   4.000000E-01   4.000000E-01   4.000000E-01   4.000000E-01   4.000000E-01   4.000000E-01   4.000000E-01   4.000000E-01   4.000000E-01   4.000000E-01   4.000000E-01   4.000000E-01   4.000000E-01   4.000000E-01   4.000000E-01   4.000000E-01   4.000000E-01   4.000000E-01   4.000000E-01   4.000000E-01   4.000000E-01   4.000000E-01   4.000000E-01   4.000000E-01   4.000000E-01   4.000000E-01   4.000000E-01   4.000000E-01   4.000000E-01   4.000000E-01   