<?xml version="1.0"?>
<!-- Time =  3.7004976260278890E+00s -->
<VTKFile type="PolyData" version="0.1" byte_order="LittleEndian">
<PolyData>
<Piece NumberOfPoints="0000002400" NumberOfVerts="0" NumberOfLines="0" NumberOfStrips="0" NumberOfPolys="0">
<Points>
<DataArray type="Float32" Name="Position" NumberOfComponents="3" format="ascii">
  8.583982E+00   1.569725E+00   3.491015E+00   1.089466E+01   1.462081E+01   2.399810E+00   1.293635E+01   1.666069E+01   5.681351E-01   6.884630E+00   6.072088E+00   4.233277E+00   5.145513E+00   2.307557E-01   3.149615E+00   1.047229E+01   3.519893E-01   4.302933E+00   8.153289E+00   9.591792E+00   4.353270E+00   1.340278E+01   3.215823E-01   3.770576E+00   5.533963E+00   2.044114E-01   2.118529E+00   1.278025E+01   3.576404E-01   2.729415E+00   6.601829E+00   7.964578E-01   3.745293E+00   4.224550E+00   1.985430E-01   2.344700E+00   4.233983E+00   8.562739E-01   8.701971E-01   1.063629E+00   2.626174E-01   3.265051E+00   8.364956E+00   8.212976E-01   7.766537E-01   6.426657E+00   3.003183E-01   4.650262E+00   1.315012E+01   1.087607E+01   1.754931E+00   4.489745E+00   9.222491E+00   2.740568E+00   6.537475E+00   5.390956E+00   2.277845E+00   3.293512E+00   2.085891E+01   4.581826E+00   5.011598E+00   8.685234E-01   4.034041E+00   5.617031E+00   5.731212E-01   1.404841E+00   6.198701E+00   2.014250E-01   4.974583E+00   4.570022E-01   8.058926E-01   3.812636E+00   4.477650E+00   2.164581E-01   4.740719E+00   8.111851E-01   5.952355E-01   3.872770E+00   7.807552E+00   9.420190E+00   1.888040E+00   5.323845E+00   1.336207E+00   2.193169E+00   9.402921E+00   2.080939E-01   3.351882E+00   9.727385E+00   6.817048E-01   9.143032E-01   2.644539E+00   5.425515E-01   3.642075E+00   7.759682E-01   7.750489E-01   3.340756E+00   1.253669E+00   5.418029E-01   1.501094E+00   6.686213E+00   1.104343E+00   2.239259E+00   3.025175E+00   3.932509E+00   1.499224E+00   3.271185E+00   8.420004E-01   1.504254E+00   6.741273E+00   7.143383E+00   1.010613E+00   1.181436E+01   1.386197E+00   3.118080E+00   9.485271E+00   5.842183E+00   1.707605E+00   3.606387E+00   5.056559E-01   4.980724E+00   3.740442E+00   2.133484E-01   3.084294E+00   9.630873E+00   5.319212E+00   4.264844E+00   7.547507E+00   2.394845E+00   4.206313E+00   6.223082E+00   2.005227E-01   3.076682E+00   4.849994E+00   2.068982E-01   4.573760E+00   7.704637E+00   2.309198E+01   3.613514E+00   7.190283E+00   5.390469E+00   8.523714E-01   1.068445E+01   1.934380E+01   1.224672E+00   1.014707E+01   3.784566E-01   1.702913E+00   9.711734E+00   1.589870E+01   4.532034E+00   5.639129E+00   2.403632E+00   1.343963E+00   6.390951E+00   5.694948E+00   1.689984E+00   3.323669E-01   8.644711E-01   3.225853E+00   4.051319E+00   1.952727E+01   9.360582E-01   9.212139E+00   1.205859E+00   1.741601E+00   1.165990E+01   1.118221E+01   2.670862E+00   1.375490E+01   1.715572E+01   4.149165E+00   1.277212E+01   7.149570E-01   1.177007E+00   6.881022E+00   1.541162E+00   5.870261E-01   3.619745E-01   1.927741E-01   4.828352E+00   1.354383E+01   2.525083E-01   3.349753E+00   1.225541E+01   2.433063E+00   2.653427E+00   9.243865E+00   7.375431E-01   3.308939E-01   1.006879E+01   1.287632E+01   4.886908E+00   4.352909E+00   2.069798E-01   5.943269E-01   4.935822E+00   5.690832E-01   3.361219E+00   1.174764E+01   3.316237E-01   3.333439E+00   8.975843E+00   3.390332E-01   3.992390E+00   8.194387E+00   1.588081E+01   1.587206E+00   1.267749E+01   7.910863E+00   1.501674E+00   6.364001E+00   2.039857E-01   6.309969E-01   6.091730E+00   3.147354E+00   3.798308E+00   1.367158E+01   6.920541E+00   3.136901E+00   3.109418E+00   5.591519E-01   6.595324E-01   5.200098E+00   1.449433E+00   3.143484E+00   1.144244E+01   2.403584E-01   2.488717E+00   5.784409E+00   5.588569E-01   1.015158E+00   8.439979E+00   1.096662E+00   3.421545E+00   3.726714E+00   9.351343E-01   2.317326E+00   6.573357E+00   5.085613E-01   3.123125E+00   1.110553E+01   2.552710E+00   2.840027E+00   6.623629E+00   2.817644E-01   4.016191E+00   8.686673E+00   1.885706E+01   2.629016E+00   6.087441E+00   3.940629E+00   2.898484E+00   1.478593E+01   1.066118E+01   2.858989E+00   2.678058E-01   2.699503E-01   2.243267E-01   5.066904E+00   9.059501E-01   3.159016E+00   6.497759E+00   1.794720E+00   4.322943E+00   4.037431E+00   1.306444E+00   4.212733E+00   5.143832E+00   2.476363E+00   2.669309E+00   3.946144E+00   1.968037E-01   1.970480E+00   3.768955E+00   1.745792E+00   7.762511E-01   3.903694E+00   9.639638E-01   1.353898E+00   5.744101E+00   8.331358E-01   4.027030E+00   5.185050E+00   4.985117E+00   1.329218E+00   1.143658E+00   4.810602E-01   4.370692E+00   4.802601E+00   4.970108E+00   2.177620E+00   1.101645E+01   4.488357E+00   2.973114E+00   1.021007E+01   1.129150E+01   1.537559E+00   5.355313E+00   8.723704E-01   3.574745E+00   9.523410E+00   1.801018E+01   2.392631E+00   9.115437E+00   9.947264E+00   2.372413E+00   5.403573E+00   2.010261E-01   9.585193E-01   1.030226E+01   1.018765E+01   5.632469E-01   2.394498E+00   2.134789E+00   3.180398E+00   5.264433E+00   9.376475E-01   1.914888E+00   1.473352E+01   4.019427E-01   2.946910E+00   3.104654E+00   9.653689E-01   2.328875E+00   5.210262E+00   1.987717E-01   5.987056E-01   1.382678E+01   7.242040E-01   8.879036E-01   6.445721E+00   2.803192E+00   1.908229E+00   1.289202E+01   1.483077E+01   3.029931E+00   6.803838E+00   4.660938E-01   1.516469E+00   6.789167E+00   3.894491E+00   3.786582E+00   4.555524E+00   2.026303E-01   1.003598E+00   8.053079E+00   1.270556E+01   2.288543E+00   1.369355E+01   7.537624E+00   1.573542E+00   5.738965E+00   2.858701E+00   4.262396E+00   1.228245E+01   3.670754E+00   1.782963E+00   7.137786E+00   2.037829E+00   4.211060E+00   2.352451E+00   7.851401E+00   2.215038E+00   4.321902E+00   2.124596E-01   3.020239E+00   6.461252E+00   1.526668E+01   4.602821E+00   2.230427E+00   1.308909E+00   4.251962E-01   3.006112E+00   4.128222E+00   4.210270E+00   1.494049E+00   2.122898E-01   3.600783E+00   3.303089E+00   1.250906E+01   2.464685E+00   1.192072E+01   6.800930E+00   4.014584E+00   4.584652E+00   2.020594E-01   2.613436E+00   6.645541E+00   2.888613E+00   3.706441E+00   3.163688E+00   2.553754E+00   3.133371E+00   1.218176E+01   1.522462E+01   3.423218E+00   3.428220E+00   1.331788E+00   2.068272E+00   6.674321E+00   7.384316E-01   4.805862E+00   2.372267E+00   4.657147E+00   1.312821E+00   2.499445E+00   7.570174E+00   2.444472E-01   5.718524E+00   1.946161E-01   1.751972E+00   3.536170E+00   4.146958E+00   1.927131E-01   4.681595E-01   8.555758E+00   4.444013E+00   1.449497E+01   1.127468E+00   2.514559E+00   4.657888E+00   2.557186E-01   3.889918E+00   2.478724E+00   2.087415E-01   3.805254E+00   1.448047E+01   1.397285E+01   2.656480E+00   1.200112E+01   2.385975E+01   4.685010E+00   3.222471E+00   1.675466E+00   6.359234E-01   6.521099E+00   1.869093E+00   1.760543E+00   1.297098E+01   9.124717E-01   3.065672E+00   5.781000E+00   1.318505E+01   2.583962E+00   1.014480E+01   2.995779E-01   9.004053E-01   5.466477E+00   8.864774E-01   3.044362E+00   8.740496E+00   3.658929E-01   6.774567E-01   8.528412E+00   9.582866E+00   1.768668E+00   4.808687E+00   7.663080E-01   4.470728E+00   1.111949E+01   1.855566E+01   2.618418E+00   1.079803E+01   6.096286E-01   4.202931E+00   1.185836E+01   1.449016E+01   3.070767E+00   1.340299E+01   9.324032E+00   2.775960E+00   1.368768E+01   2.091413E+00   3.600661E+00   1.927100E+00   1.121077E+01   2.303686E+00   1.809904E+00   2.541541E-01   2.327174E-01   1.023006E+01   3.862837E+00   1.860313E+00   1.720936E+00   1.216167E+00   1.017851E+00   8.849634E-01   2.063522E-01   2.004527E-01   6.177054E+00   1.126487E+00   4.149913E+00   1.439659E+01   1.310596E+01   3.476105E+00   3.334144E+00   1.470879E+00   3.745670E+00   5.584679E+00   4.527451E-01   4.718210E+00   5.760473E+00   1.558589E+01   4.486649E+00   1.161679E+00   1.908911E+00   4.338876E+00   5.166592E+00   2.086651E-01   2.324195E+00   1.055212E+01   4.476937E-01   4.989815E+00   4.902178E+00   2.001362E-01   1.418751E+00   6.003105E+00   4.776472E-01   3.912291E+00   2.062181E+00   1.988323E-01   4.769171E+00   1.336869E+01   1.649249E+01   3.116302E+00   6.471034E-01   7.591997E+00   2.901855E+00   6.089143E+00   1.961581E+01   2.293313E+00   5.405117E+00   7.074642E-01   1.071015E+00   6.366994E+00   2.355333E-01   2.182470E-01   4.789773E+00   1.366927E+01   2.539996E+00   3.264220E+00   4.093113E-01   3.622272E+00   5.045677E+00   1.778679E+01   2.426647E+00   3.017689E+00   7.354755E-01   1.050264E+00   6.929805E+00   4.220520E+00   4.085875E+00   6.650616E-01   5.497298E-01   4.685184E+00   7.884827E+00   6.768101E+00   3.954216E+00   1.162445E+01   4.165796E-01   3.922248E+00   6.104516E+00   7.496238E+00   3.410507E+00   6.020414E+00   3.109855E+00   8.738315E-01   9.119367E+00   2.115095E-01   1.062533E+00   5.993819E+00   4.335808E-01   6.075720E-01   1.466015E+01   6.784993E+00   3.218988E+00   4.642852E+00   1.192122E+00   4.781925E+00   7.164337E+00   5.550547E-01   4.354364E+00   2.989151E+00   2.241469E-01   2.433172E+00   6.604908E+00   3.823857E+00   1.845987E+00   2.857595E+00   1.693753E+01   3.434859E+00   1.165313E+01   1.311212E+01   4.365154E+00   1.129741E+01   2.676505E-01   4.815971E+00   5.972910E+00   4.650688E+00   2.764727E+00   3.860121E+00   3.129010E+00   4.153368E+00   2.820300E+00   1.135222E+00   4.143480E+00   1.319382E+00   5.351099E-01   2.370625E+00   7.195304E+00   1.727621E+00   1.103358E+00   1.230341E+01   1.308171E+00   4.704331E+00   1.183657E+01   1.653301E+00   4.892820E+00   1.120360E+01   7.703446E+00   2.595497E+00   1.059069E+01   5.140447E+00   2.699609E+00   4.777479E+00   3.081998E-01   2.253738E+00   5.552142E+00   1.520210E+01   2.744396E+00   9.155288E+00   2.857004E+00   1.156161E+00   2.839960E+00   2.467754E-01   4.775662E+00   7.090643E+00   2.117406E+00   3.633320E+00   1.080725E+01   1.670508E+01   1.128906E+00   1.063984E+01   1.362893E+01  
[...]
<PointData Scalars="Diameter" Vectors="Velocity">
<DataArray type="Float32" Name="Diameter" format="ascii">
  4.000000E-01   4.000000E-01   4.000000E-01   4.000000E-01   4.000000E-01   4.000000E-01   4.000000E-01   4.000000E-01   4.000000E-01   4.000000E-01   4.000000E-01   4.000000E-01   4.000000E-01   4.000000E-01   4.000000E-01   4.000000E-01   4.000000E-01   4.000000E-01   4.000000E-01   4.000000E-01   4.000000E-01   4.000000E-01   4.000000E-01   4.000000E-01   4.000000E-01   4.000000E-01   4.000000E-01   4.000000E-01   4.000000E-01   4.000000E-01   4.000000E-01   4.000000E-01   4.000000E-01   4.000000E-01   4.000000E-01   4.000000E-01   4.000000E-01   4.000000E-01   4.000000E-01   4.000000E-01   4.000000E-01   4.000000E-01   4.000000E-01   4.000000E-01   4.000000E-01   4.000000E-01   4.000000E-01   4.000000E-01   4.000000E-01   4.000000E-01   4.000000E-01   4.000000E-01   4.000000E-01   4.000000E-01   4.000000E-01   4.000000E-01   4.000000E-01   4.000000E-01   4.000000E-01   4.000000E-01   4.000000E-01   4.000000E-01   4.000000E-01   4.000000E-01   4.000000E-01   4.000000E-01   4.000000E-01   4.000000E-01   4.000000E-01   4.000000E-01   4.000000E-01   4.000000E-01   4.000000E-01   4.000000E-01   4.000000E-01   4.000000E-01   4.000000E-01   4.000000E-01   4.000000E-01   4.000000E-01   4.000000E-01   4.000000E-01   4.000000E-01   4.000000E-01   4.000000E-01   4.000000E-01   4.000000E-01   4.000000E-01   4.000000E-01   4.000000E-01   4.000000E-01   4.000000E-01   4.000000E-01   4.000000E-01   4.000000E-01   4.000000E-01   4.000000E-01   4.000000E-01   4.000000E-01   4.000000E-01   4.000000E-01   4.000000E-01   4.000000E-01   4.000000E-01   4.000000E-01   4.000000E-01   4.000000E-01   4.000000E-01   4.000000E-01   4.000000E-01   4.000000E-01   4.000000E-01   4.000000E-01   4.000000E-01   4.000000E-01   4.000000E-01   4.000000E-01   4.000000E-01   4.000000E-01   4.000000E-01   4.000000E-01   4.000000E-01   4.000000E-01   4.000000E-01   4.000000E-01   4.000000E-01   4.000000E-01   4.000000E-01   4.000000E-01   4.000000E-01   4.000000E-01   4.000000E-01   4.000000E-01   4.000000E-01   4.000000E-01   4.000000E-01   4.000000E-01   4.000000E-01   4.000000E-01   4.000000E-01   4.000000E-01   4.000000E-01   4.000000E-01   4.000000E-01   4.000000E-01   4.000000E-01   4.000000E-01   4.000000E-01   4.000000E-01   4.000000E-01   4.000000E-01   4.000000E-01   4.000000E-01   4.000000E-01   4.000000E-01   4.000000E-01   4.000000E-01   4.000000E-01   4.000000E-01   4.000000E-01   4.000000E-01   4.000000E-01   4.000000E-01   4.000000E-01   4.000000E-01   4.000000E-01   4.000000E-01   4.000000E-01   4.000000E-01   4.000000E-01   4.000000E-01   4.000000E-01   4.000000E-01   4.000000E-01   4.000000E-01   4.000000E-01   4.000000E-01   4.000000E-01   4.000000E-01   4.000000E-01   4.000000E-01   4.000000E-01   4.000000E-01   4.000000E-01   4.000000E-01   4.000000E-01   4.000000E-01   4.000000E-01   4.000000E-01   4.000000E-01   4.000000E-01   4.000000E-01   4.000000E-01   4.000000E-01   4.000000E-01   4.000000E-01   4.000000E-01   4.000000E-01   4.000000E-01   4.000000E-01   4.000000E-01   4.000000E-01   4.000000E-01   4.000000E-01   4.000000E-01   4.000000E-01   4.000000E-01   4.000000E-01   4.000000E-01   4.000000E-01   4.000000E-01   4.000000E-01   4.000000E-01   4.000000E-01   4.000000E-01   4.000000E-01   4.000000E-01   4.000000E-01   4.000000E-01   4.000000E-01   4.000000E-01   4.000000E-01   4.000000E-01   4.000000E-01   4.000000E-01   4.000000E-01   4.000000E-01   4.000000E-01   4.000000E-01   4.000000E-01   4.000000E-01   4.000000E-01   4.000000E-01   4.000000E-01   4.000000E-01   4.000000E-01   4.000000E-01   4.000000E-01   4.000000E-01   4.000000E-01   4.000000E-01   4.000000E-01   4.000000E-01   4.000000E-01   4.000000E-01   4.000000E-01   4.000000E-01   4.000000E-01   4.000000E-01   4.000000E-01   4.000000E-01   4.000000E-01   4.000000E-01   4.000000E-01   4.000000E-01   4.000000E-01   4.000000E-01   4.000000E-01   4.000000E-01   4.000000E-01   4.000000E-01   4.000000E-01   4.000000E-01   4.000000E-01   4.000000E-01   4.000000E-01   4.000000E-01   4.000000E-01   4.000000E-01   4.000000E-01   4.000000E-01   4.000000E-01   4.000000E-01   4.000000E-01   4.000000E-01   4.000000E-01   4.000000E-01   4.000000E-01   4.000000E-01   4.000000E-01   4.000000E-01   4.000000E-01   4.000000E-01   4.000000E-01   4.000000E-01   4.000000E-01   4.000000E-01   4.000000E-01   4.000000E-01   4.000000E-01   4.000000E-01   4.000000E-01   4.000000E-01   4.000000E-01   4.000000E-01   4.000000E-01   4.000000E-01   4.000000E-01   4.000000E-01   4.000000E-01   4.000000E-01   4.000000E-01   4.000000E-01   4.000000E-01   4.000000E-01   4.000000E-01   4.000000E-01   4.000000E-01   4.000000E-01   4.000000E-01   4.000000E-01   4.000000E-01   4.000000E-01   4.000000E-01   4.000000E-01   4.000000E-01   4.000000E-01   4.000000E-01   4.000000E-01   4.000000E-01   4.000000E-01   4.000000E-01   4.000000E-01   4.000000E-01   4.000000E-01   4.000000E-01   4.000000E-01   4.000000E-01   4.000000E-01   4.000000E-01   4.000000E-01   4.000000E-01   4.000000E-01   4.000000E-01   4.000000E-01   4.000000E-01   4.000000E-01   4.000000E-01   4.000000E-01   4.000000E-01   4.000000E-01   4.000000E-01   4.000000E-01   4.000000E-01   4.000000E-01   4.000000E-01   4.000000E-01   4.000000E-01   4.000000E-01   4.000000E-01   4.000000E-01   4.000000E-01   4.000000E-01   4.000000E-01   4.000000E-01   4.000000E-01   4.000000E-01   4.000000E-01   4.000000E-01   4.000000E-01   4.000000E-01   4.000000E-01   4.000000E-01   4.000000E-01   4.000000E-01   4.000000E-01   4.000000E-01   4.000000E-01   4.000000E-01   4.000000E-01   4.000000E-01   4.000000E-01   4.000000E-01   4.000000E-01   4.000000E-01   4.000000E-01   4.000000E-01   4.000000E-01   4.000000E-01   4.000000E-01   4.000000E-01   4.000000E-01   4.000000E-01   4.000000E-01   4.000000E-01   4.000000E-01   4.000000E-01   4.000000E-01   4.000000E-01   4.000000E-01   4.000000E-01   4.000000E-01   4.000000E-01   4.000000E-01   4.000000E-01   4.000000E-01   4.000000E-01   4.000000E-01   4.000000E-01   4.000000E-01   4.000000E-01   4.000000E-01   4.000000E-01   4.000000E-01   4.000000E-01   4.000000E-01   4.000000E-01   4.000000E-01   4.000000E-01   4.000000E-01   4.000000E-01   4.000000E-01   4.000000E-01   4.000000E-01   4.000000E-01   4.000000E-01   4.000000E-01   4.000000E-01   4.000000E-01   4.000000E-01   4.000000E-01   4.000000E-01   4.000000E-01   4.000000E-01   4.000000E-01   4.000000E-01   4.000000E-01   4.000000E-01   4.000000E-01   4.000000E-01   4.000000E-01   4.000000E-01   4.000000E-01   4.000000E-01   4.000000E-01   4.000000E-01   4.000000E-01   4.000000E-01   4.000000E-01   4.000000E-01   4.000000E-01   4.000000E-01   4.000000E-01   4.000000E-01   4.000000E-01   4.000000E-01   4.000000E-01   4.000000E-01   4.000000E-01   4.000000E-01   4.000000E-01   4.000000E-01   4.000000E-01   4.000000E-01   4.000000E-01   4.000000E-01   4.000000E-01   4.000000E-01   4.000000E-01   4.000000E-01   4.000000E-01   4.000000E-01   4.000000E-01   4.000000E-01   4.000000E-01   4.000000E-01   4.000000E-01   4.000000E-01   4.000000E-01   4.000000E-01   4.000000E-01   4.000000E-01   4.000000E-01   4.000000E-01   4.000000E-01   4.000000E-01   4.000000E-01   4.000000E-01   4.000000E-01   4.000000E-01   4.000000E-01   4.000000E-01   4.000000E-01   4.000000E-01   4.000000E-01   4.000000E-01   4.000000E-01   4.000000E-01   4.000000E-01   4.000000E-01   4.000000E-01   4.000000E-01   4.000000E-01   4.000000E-01   4.000000E-01   4.000000E-01   4.000000E-01   4.000000E-01   4.000000E-01   4.000000E-01   4.000000E-01   4.000000E-01   4.000000E-01   4.000000E-01   4.000000E-01   4.000000E-01   4.000000E-01   4.000000E-01   4.000000E-01   4.000000E-01   4.000000E-01   4.000000E-01   4.000000E-01   4.000000E-01   4.000000E-01   4.000000E-01   4.000000E-01   4.000000E-01   4.000000E-01   4.000000E-01   4.000000E-01   4.000000E-01   4.000000E-01   4.000000E-01   4.000000E-01   4.000000E-01   4.000000E-01   4.000000E-01   4.000000E-01   4.000000E-01   4.000000E-01   4.000000E-01   4.000000E-01   4.000000E-01   4.000000E-01   4.000000E-01   4.000000E-01   4.000000E-01   4.000000E-01   4.000000E-01   4.000000E-01   4.000000E-01   4.000000E-01   4.000000E-01   4.000000E-01   4.000000E-01   4.000000E-01   4.000000E-01   4.000000E-01   4.000000E-01   4.000000E-01   4.000000E-01   4.000000E-01   4.000000E-01   4.000000E-01   4.000000E-01   4.000000E-01   4.000000E-01   4.000000E-01   4.000000E-01   4.000000E-01   4.000000E-01   4.000000E-01   4.000000E-01   4.000000E-01   4.000000E-01   4.000000E-01   4.000000E-01   4.000000E-01   4.000000E-01   4.000000E-01   4.000000E-01   4.000000E-01   4.000000E-01   4.000000E-01   4.000000E-01   4.000000E-01   4.000000E-01   4.000000E-01   4.000000E-01   4.000000E-01   4.000000E-01   4.000000E-01   4.000000E-01   4.000000E-01   4.000000E-01   4.000000E-01   4.000000E-01   4.000000E-01   4.000000E-01   4.000000E-01   4.000000E-01   4.000000E-01   4.000000E-01   4.000000E-01   4.000000E-01   4.000000E-01   4.000000E-01   4.000000E-01   4.000000E-01   4.000000E-01   4.000000E-01   4.000000E-01   4.000000E-01   4.000000E-01   4.000000E-01   4.000000E-01   4.000000E-01   4.000000E-01   4.000000E-01   4.000000E-01   4.000000E-01   4.000000E-01   4.000000E-01   4.000000E-01   4.000000E-01   4.000000E-01   4.000000E-01   4.000000E-01   4.000000E-01   4.000000E-01   4.000000E-01   4.000000E-01   4.000000E-01   4.000000E-01   4.000000E-01   4.000000E-01   4.000000E-01   4.000000E-01   4.000000E-01   4.000000E-01   4.000000E-01   4.000000E-01   4.000000E-01   4.000000E-01   4.000000E-01   4.000000E-01   4.000000E-01   4.000000E-01   4.000000E-01   4.000000E-01   4.000000E-01   4.000000E-01   4.000000E-01   4.000000E-01   4.000000E-01   4.000000E-01   4.000000E-01   4.000000E-01   4.000000E-01   4.000000E-01   4.000000E-01   4.000000E-01   4.000000E-01   4.000000E-01   4.000000E-01   4.000000E-01   4.000000E-01   4.000000E-01   4.000000E-01   4.000000E-01   4.000000E-01   4.000000E-01   4.000000E-01   4.000000E-01   4.000000E-01   4.000000E-01   4.000000E-01   4.000000E-01   4.000000E-01   4.000000E-01   4.000000E-01   4.000000E-01   4.000000E-01   4.000000E-01   4.000000E-01   4.000000E-01   4.000000E-01   4.000000E-01   4.000000E-01   4.000000E-01   4.000000E-01   4.000000E-01   4.000000E-01   4.000000E-01   4.000000E-01   4.000000E-01   4.000000E-01   4.000000E-01   4.000000E-01   4.000000E-01   4.000000E-01   4.000000E-01   4.000000E-01   4.000000E-01   4.000000E-01   4.000000E-01   4.000000E-01   4.000000E-01   4.000000E-01   4.000000E-01   4.000000E-01   4.000000E-01   4.000000E-01   4.000000E-01   4.000000E-01   4.000000E-01   4.000000E-01   4.000000E-01   4.000000E-01   4.000000E-01   4.000000E-01   4.000000E-01   4.000000E-01   4.000000E-01   4.000000E-01   4.000000E-01   4.000000E-01   4.000000E-01   4.000000E-01   4.000000E-01   4.000000E-01   4.000000E-01   4.000000E-01   4.000000E-01   4.000000E-01   4.000000E-01   4.000000E-01   4.000000E-01   4.000000E-01   4.000000E-01   4.000000E-01   4.000000E-01   4.000000E-01   4.000000E-01   4.000000E-01   4.000000E-01   4.000000E-01   4.000000E-01   4.000000E-01   4.000000E-01   4.000000E-01   4.000000E-01   4.000000E-01   4.000000E-01   4.000000E-01   4.000000E-01   4.000000E-01   4.000000E-01   4.000000E-01   4.000000E-01   4.000000E-01   4.000000E-01   4.000000E-01   4.000000E-01   4.000000E-01   4.000000E-01   4.000000E-01   4.000000E-01   4.000000E-01   4.000000E-01   4.000000E-01   4.000000E-01   4.000000E-01   4.000000E-01   4.000000E-01   4.000000E-01   4.000000E-01   4.000000E-01   4.000000E-01   4.000000E-01   4.000000E-01   4.000000E-01   4.000000E-01   4.000000E-01   4.000000E-01   4.000000E-01   4.000000E-01   4.000000E-01   4.000000E-01   4.000000E-01   4.000000E-01   4.000000E-01   4.000000E-01   4.000000E-01   4.000000E-01   4.000000E-01   4.000000E-01   4.000000E-01   4.000000E-01   4.000000E-01   4.000000E-01   4.000000E-01   4.000000E-01   4.000000E-01   4.000000E-01   4.000000E-01   4.000000E-01   4.000000E-01   4.000000E-01   4.000000E-01   4.000000E-01   4.000000E-01   4.000000E-01   4.000000E-01   4.000000E-01   4.000000E-01   4.000000E-01   4.000000E-01   4.000000E-01   4.000000E-01   4.000000E-01   4.000000E-01   4.000000E-01   4.000000E-01   4.000000E-01   4.000000E-01   4.000000E-01   4.000000E-01   4.000000E-01   4.000000E-01   4.000000E-01   4.000000E-01   4.000000E-01   4.000000E-01   4.000000E-01   4.000000E-01   4.000000E-01   4.000000E-01   4.000000E-01   4.000000E-01   4.000000E-01   4.000000E-01   4.000000E-01   4.000000E-01   4.000000E-01   4.000000E-01   4.000000E-01   4.000000E-01   4.000000E-01   4.000000E-01   4.000000E-01   4.000000E-01   4.000000E-01   4.000000E-01   4.000000E-01   4.000000E-01   4.000000E-01   4.000000E-01   4.000000E-01   4.000000E-01   4.000000E-01   4.000000E-01   4.000000E-01   4.000000E-01   4.000000E-01   4.000000E-01   4.000000E-01   4.000000E-01   4.000000E-01   4.000000E-01   4.000000E-01   4.000000E-01   4.000000E-01   4.000000E-01   4.000000E-01   4.000000E-01   4.000000E-01   4.000000E-01   4.000000E-01   4.000000E-01   4.000000E-01   4.000000E-01   4.000000E-01   4.000000E-01   4.000000E-01   4.000000E-01   4.000000E-01   4.000000E-01   4.000000E-01   4.000000E-01   4.000000E-01   4.000000E-01   4.000000E-01   4.000000E-01   4.000000E-01   4.000000E-01   4.000000E-01   4.000000E-01   4.000000E-01   4.000000E-01   4.000000E-01   4.000000E-01   4.000000E-01   4.000000E-01   4.000000E-01   4.000000E-01   4.000000E-01   4.000000E-01   4.000000E-01   4.000000E-01   4.000000E-01   4.000000E-01   4.000000E-01   4.000000E-01   4.000000E-01   4.000000E-01   4.000000E-01   4.000000E-01   4.000000E-01   4.000000E-01   4.000000E-01   4.000000E-01   4.000000E-01   4.000000E-01   4.000000E-01   4.000000E-01   4.000000E-01   4.000000E-01   4.000000E-01   4.000000E-01   4.000000E-01   4.000000E-01   4.000000E-01   4.000000E-01   4.000000E-01   4.000000E-01   4.000000E-01   4.000000E-01   4.000000E-01   4.000000E-01   4.000000E-01   4.000000E-01   4.000000E-01   4.000000E-01   4.000000E-01   4.000000E-01   4.000000E-01   4.000000E-01   4.000000E-01   4.000000E-01   4.000000E-01   4.000000E-01   4.000000E-01   4.000000E-01   4.000000E-01   4.000000E-01   4.000000E-01   4.000000E-01   4.000000E-01   4.000000E-01   4.000000E-01   4.000000E-01   4.000000E-01   4.000000E-01   4.000000E-01   4.000000E-01   4.000000E-01   4.000000E-01   4.000000E-01   4.000000E-01   4.000000E-01   4.000000E-01   4.000000E-01   4.000000E-01   4.000000E-01   4.000000E-01   4.000000E-01   4.000000E-01   4.000000E-01   4.000000E-01   4.000000E-01   4.000000E-01   4.000000E-01   4.000000E-01   4.000000E-01   4.000000E-01   4.000000E-01   4.000000E-01   4.000000E-01   4.000000E-01   4.000000E-01   4.000000E-01   4.000000E-01   4.000000E-01   4.000000E-01   4.000000E-01   4.000000E-01   4.000000E-01   4.000000E-01   4.000000E-01   4.000000E-01   4.000000E-01   4.000000E-01   4.000000E-01   4.000000E-01   4.000000E-01   4.000000E-01   4.000000E-01   4.000000E-01   4.000000E-01   4.000000E-01   4.000000E-01   4.000000E-01   4.000000E-01   4.000000E-01   4.000000E-01   4.000000E-01   4.000000E-01   4.000000E-01   4.000000E-01   4.000000E-01   4.000000E-01   4.000000E-01   4.000000E-01   4.000000E-01   4.000000E-01   4.000000E-01   4.000000E-01   4.000000E-01   4.000000E-01   4.000000E-01   4.000000E-01   4.000000E-01   4.000000E-01   4.000000E-01   4.000000E-01   4.000000E-01   4.000000E-01   4.000000E-01   4.000000E-01   4.000000E-01   4.000000E-01   4.000000E-01   4.000000E-01   4.000000E-01   4.000000E-01   4.000000E-01   4.000000E-01   4.000000E-01   4.000000E-01   4.000000E-01   4.000000E-01   4.000000E-01   4.000000E-01   4.000000E-01   4.000000E-01   4.000000E-01   4.000000E-01   4.000000E-01   4.000000E-01   4.000000E-01   4.000000E-01   4.000000E-01   4.000000E-01   4.000000E-01   4.000000E-01   4.000000E-01   4.000000E-01   4.000000E-01   4.000000E-01   4.000000E-01   4.000000E-01   4.000000E-01   4.000000E-01   4.000000E-01   4.000000E-01   4.000000E-01   4.000000E-01   4.000000E-01   4.000000E-01   4.000000E-01   4.000000E-01   4.000000E-01   4.000000E-01   4.000000E-01   4.000000E-01   4.000000E-01   4.000000E-01   4.000000E-01   4.000000E-01   4.000000E-01   4.000000E-01   4.000000E-01   4.000000E-01   4.000000E-01   4.000000E-01   4.000000E-01   4.000000E-01   4.000000E-01   4.000000E-01   4.000000E-01   4.000000E-01   4.000000E-01   4.000000E-01   4.000000E-01   4.000000E-01   4.000000E-01   4.000000E-01   4.000000E-01   4.000000E-01   4.000000E-01   4.000000E-01   4.000000E-01   4.000000E-01   4.000000E-01   4.000000E-01   4.000000E-01   4.000000E-01   4.000000E-01   4.000000E-01   4.000000E-01   4.000000E-01   4.000000E-01   4.000000E-01   4.000000E-01   4.000000E-01   4.000000E-01   4.000000E-01   4.000000E-01   4.000000E-01   4.000000E-01   4.000000E-01   4.000000E-01   4.000000E-01   4.000000E-01   4.000000E-01   4.000000E-01   4.000000E-01   4.000000E-01   4.000000E-01   4.000000E-01   4.000000E-01   4.000000E-01   4.000000E-01   4.000000E-01   4.000000E-01   4.000000E-01   4.000000E-01   4.000000E-01   4.000000E-01   4.000000E-01   4.000000E-01   4.000000E-01   4.000000E-01   4.000000E-01   4.000000E-01   4.000000E-01   4.000000E-01   4.000000E-01   4.000000E-01   4.000000E-01   4.000000E-01   4.000000E-01   4.000000E-01   4.000000E-01   4.000000E-01   4.000000E-01   4.000000E-01   4.000000E-01   4.000000E-01   4.000000E-01   4.000000E-01   4.000000E-01   4.000000E-01   4.000000E-01   4.000000E-01   4.000000E-01   4.000000E-01   4.000000E-01   4.000000E-01   4.000000E-01   4.000000E-01   4.000000E-01   4.000000E-01   4.000000E-01   4.000000E-01   4.000000E-01   4.000000E-01   4.000000E-01   4.000000E-01   4.000000E-01   4.000000E-01   4.000000E-01   4.000000E-01   4.000000E-01   4.000000E-01   4.000000E-01   4.000000E-01   4.000000E-01   4.000000E-01   4.000000E-01   4.000000E-01   4.000000E-01   4.000000E-01   4.000000E-01   4.000000E-01   4.000000E-01   4.000000E-01   4.000000E-01   4.000000E-01   4.000000E-01   4.000000E-01   4.000000E-01   4.000000E-01   4.000000E-01   4.000000E-01   4.000000E-01   4.000000E-01   4.000000E-01   4.000000E-01   4.000000E-01   4.000000E-01   4.000000E-01   4.000000E-01   4.000000E-01   4.000000E-01   4.000000E-01   4.000000E-01   4.000000E-01   4.000000E-01   4.000000E-01   4.000000E-01   4.000000E-01   4.000000E-01   4.000000E-01   4.000000E-01   4.000000E-01   4.000000E-01   4.000000E-01   4.000000E-01   4.000000E-01   4.000000E-01   4.000000E-01   4.000000E-01   4.000000E-01   4.000000E-01   4.000000E-01   4.000000E-01   4.000000E-01   4.000000E-01   4.000000E-01   4.000000E-01   4.000000E-01   4.000000E-01   4.000000E-01   4.000000E-01   4.000000E-01   4.000000E-01   4.000000E-01   4.000000E-01   4.000000E-01   4.000000E-01   4.000000E-01   4.000000E-01   4.000000E-01   4.000000E-01   4.000000E-01   4.000000E-01   4.000000E-01   4.000000E-01   4.000000E-01   4.000000E-01   4.000000E-01   4.000000E-01   4.000000E-01   4.000000E-01   4.000000E-01   4.000000E-01   4.000000E-01   4.000000E-01   4.000000E-01   4.000000E-01   4.000000E-01   4.000000E-01   4.000000E-01   4.000000E-01   4.000000E-01   4.000000E-01   4.000000E-01   4.000000E-01   4.000000E-01   4.000000E-01   4.000000E-01   4.000000E-01   4.000000E-01   4.000000E-01   4.000000E-01   4.000000E-01   4.000000E-01   4.000000E-01   4.000000E-01   4.000000E-01   4.000000E-01   4.000000E-01   4.000000E-01   4.000000E-01   4.000000E-01   4.000000E-01   4.000000E-01   4.000000E-01   4.000000E-01   4.000000E-01   4.000000E-01   4.000000E-01   4.000000E-01   4.000000E-01   4.000000E-01   4.000000E-01   4.000000E-01   4.000000E-01   4.000000E-01   4.000000E-01   4.000000E-01   4.000000E-01   4.000000E-01   4.000000E-01   4.000000E-01   4.000000E-01   4.000000E-01   4.000000E-01   4.000000E-01   4.000000E-01   4.000000E-01   4.000000E-01   4.000000E-01   