<?xml version="1.0"?>
<!-- Time =  1.3005376260280708E+00s -->
<VTKFile type="PolyData" version="0.1" byte_order="LittleEndian">
<PolyData>
<Piece NumberOfPoints="0000002400" NumberOfVerts="0" NumberOfLines="0" NumberOfStrips="0" NumberOfPolys="0">
<Points>
<DataArray type="Float32" Name="Position" NumberOfComponents="3" format="ascii">
  5.328786E-01   2.088691E-01   1.982072E-01   4.717342E+00   2.017987E-01   5.058208E-01   6.279051E+00   2.048613E-01   1.992305E-01   7.560768E+00   1.506595E+00   3.381852E-01   8.391959E+00   1.048197E+00   3.175692E-01   1.397440E+01   7.278788E+00   2.571846E+00   5.498358E+00   1.064023E+00   1.102946E+00   4.718264E+00   1.048017E+00   1.298303E+00   1.441198E+01   8.657568E-01   3.001861E+00   1.267072E+01   1.338867E+01   2.416414E+00   4.640029E+00   9.306363E-01   4.186942E+00   4.557302E+00   1.109080E+01   3.576779E+00   7.167295E+00   3.494897E+00   1.972415E+00   5.467214E+00   1.223739E+01   1.067550E+00   2.839314E+00   2.093197E-01   1.554427E+00   7.133051E+00   3.107320E+00   2.767128E-01   7.141314E+00   2.956121E+00   3.530514E+00   7.082373E+00   1.698747E+00   1.947540E+00   5.253082E+00   5.801719E-01   2.492897E+00   6.746082E+00   3.306217E+00   2.004325E+00   8.266736E+00   7.272955E+00   3.824284E+00   1.192502E+01   2.656535E-01   2.193198E+00   7.307356E+00   9.218700E+00   1.780710E+00   1.325617E+01   8.498990E+00   1.902359E+00   1.338103E+01   2.096819E+00   2.540314E+00   1.323630E+01   1.147977E+01   1.888405E+00   5.944823E+00   5.166131E-01   1.686866E+00   6.615424E+00   6.366964E+00   1.298116E+00   1.075895E+01   1.192152E+00   6.721475E-01   1.148516E+01   1.201218E+01   1.816434E+00   6.315027E+00   1.236225E+00   2.093325E-01   1.364254E+01   9.773643E+00   1.291767E+00   6.273837E+00   7.863503E+00   4.473365E+00   3.984134E+00   3.215014E+00   1.050861E+00   1.243281E+01   1.408759E+01   2.992200E+00   6.221697E-01   2.780324E-01   1.864233E+00   2.022091E-01   2.395589E-01   1.142941E+00   5.794878E+00   1.986308E-01   2.041398E-01   6.819234E+00   1.357575E+00   6.399609E-01   7.141174E+00   1.315321E+00   3.496129E-01   6.630580E+00   2.757595E+00   2.326604E-01   1.011456E+01   6.262816E+00   3.104402E+00   1.840428E+00   2.744082E-01   1.724488E+00   4.287812E+00   1.722835E+01   2.937093E+00   4.082417E+00   1.371440E+00   5.556716E-01   6.460585E+00   2.445616E+00   1.127256E+00   1.361556E+01   6.249570E-01   2.600995E+00   5.114690E+00   8.664978E-01   3.294773E+00   6.741105E+00   1.349371E+00   2.056753E-01   5.097818E+00   3.743310E-01   3.595046E+00   1.321334E+01   1.450764E+01   1.495770E+00   7.184862E-01   5.854494E-01   1.557503E+00   7.046073E+00   6.198036E+00   1.258218E+00   9.494676E+00   1.577269E+01   4.449381E+00   3.828079E+00   8.557025E+00   3.333409E+00   2.786301E+00   5.805916E-01   1.004717E+00   1.437186E+01   3.122395E+00   4.801352E+00   9.257051E+00   8.964655E+00   2.298616E+00   1.100501E+01   1.552106E+00   2.108064E+00   9.040475E+00   2.473070E-01   4.733111E+00   1.327375E+01   1.568072E+00   2.335374E-01   6.839960E+00   1.744004E+00   3.899406E-01   1.041058E+01   2.659462E+00   1.246555E+00   1.201890E+01   1.830034E+01   4.852802E+00   1.246477E+01   1.347301E+01   7.401677E-01   1.645184E+00   2.043979E-01   5.632765E-01   1.832116E+00   2.106349E-01   2.019030E-01   3.965815E+00   1.987290E-01   1.948794E-01   3.764647E+00   1.506400E+00   2.474858E+00   5.992342E+00   4.304186E+00   6.900463E-01   7.692006E+00   4.473561E+00   6.166117E-01   5.984514E+00   8.990927E-01   1.311444E+00   1.720918E+00   1.517349E+00   7.091869E-01   6.760501E+00   4.731634E-01   1.235468E+00   4.366593E+00   4.887058E-01   1.495882E+00   2.283407E+00   2.204551E+00   3.776141E+00   9.039502E+00   1.315662E+00   3.260496E+00   1.164394E+01   1.234330E+01   1.046073E+00   6.152734E+00   1.998400E+00   3.194925E+00   6.587691E+00   5.578211E+00   2.671612E+00   1.643300E+00   4.416039E+00   5.091912E-01   1.399029E+00   1.246511E+01   4.406225E+00   5.611615E+00   2.440285E-01   1.593366E+00   4.926048E+00   2.069310E-01   4.822292E+00   8.646737E+00   6.881876E+00   3.466676E+00   8.948541E+00   4.424455E-01   2.467469E+00   4.967025E+00   4.248520E-01   1.215112E+00   4.564720E+00   2.816048E-01   2.181588E+00   5.397284E+00   2.150425E-01   2.019845E+00   8.487788E+00   1.406935E+01   4.237545E+00   1.213647E+01   1.179100E+01   4.255919E+00   1.073330E+00   1.439430E+00   1.126013E+00   2.021291E+00   5.784095E+00   3.388601E+00   7.980084E+00   3.933041E+00   3.897541E-01   7.701480E+00   6.469712E+00   2.972867E+00   7.152422E+00   1.191473E+00   8.543652E-01   9.338672E+00   4.080269E-01   2.223848E+00   3.215538E+00   2.242700E-01   1.719917E+00   6.660629E+00   2.845591E-01   3.900618E-01   7.326478E+00   1.908136E+00   5.291251E-01   9.678200E+00   1.515726E+01   2.244687E+00   8.109627E+00   1.091381E+01   3.977210E+00   7.369672E-01   1.826424E+00   3.652551E+00   2.907605E+00   6.868901E-01   2.428936E+00   5.015491E+00   5.685844E-01   7.039362E-01   5.407337E+00   1.247667E+00   1.617257E+00   1.416136E+00   2.019742E-01   2.150808E-01   9.649721E+00   6.651061E+00   4.698843E+00   1.319746E+01   3.345960E+00   8.020281E-01   8.816778E+00   3.369235E+00   4.588614E+00   2.906931E+00   3.944541E-01   3.415439E+00   5.619298E+00   1.465798E+00   3.572009E+00   7.182379E+00   1.520015E+00   3.705762E+00   1.320016E+00   8.452943E-01   3.559656E+00   9.628934E+00   1.096680E+01   1.928546E+00   6.728181E+00   4.945945E-01   3.556754E+00   2.967892E+00   6.793802E-01   6.461565E-01   3.604214E+00   9.401444E-01   3.910332E+00   1.140996E+00   6.547323E-01   2.530628E+00   1.079345E+01   1.590697E+01   2.461674E+00   6.298150E+00   7.696835E-01   3.227997E+00   4.357644E-01   9.603309E-01   1.431406E+00   1.128183E+01   7.454703E-01   1.268192E+00   9.933434E+00   2.340775E+01   1.267319E+00   1.469202E+01   1.124672E+01   4.227502E+00   6.686516E+00   7.115129E+00   2.845320E+00   7.830017E+00   8.353976E-01   4.638391E+00   8.372090E+00   3.587858E-01   7.561767E-01   1.485350E+00   3.335956E-01   2.558215E+00   8.602000E+00   1.217291E+01   3.995195E+00   7.133983E+00   2.509142E+00   4.102828E-01   1.436085E+01   7.443063E+00   2.169600E+00   7.800231E-01   1.838581E+00   1.610206E+00   4.317286E+00   1.099644E+01   3.046301E+00   9.780924E+00   1.976591E+01   2.311932E+00   4.663744E+00   5.504927E-01   4.660567E+00   3.674763E+00   4.674269E+00   3.963405E+00   4.986095E+00   2.346705E-01   4.024540E+00   3.295291E+00   5.824507E+00   2.560840E+00   4.190405E+00   1.644186E+01   2.435181E+00   1.086840E+01   5.913349E-01   4.304955E+00   1.172416E+01   9.572506E+00   1.059769E+00   1.223332E+01   1.155750E+00   4.657632E+00   3.679677E+00   1.683578E+01   1.026637E+00   9.318769E+00   4.708015E+00   4.442971E+00   6.162836E+00   9.865386E-01   1.840410E+00   3.741262E+00   2.915785E+00   4.437881E+00   7.026618E+00   1.017572E+00   4.022900E+00   6.830970E+00   1.113311E+01   4.129969E+00   6.232818E+00   2.059866E-01   1.759558E+00   4.611511E+00   2.659242E-01   4.158878E+00   6.144763E+00   5.658481E+00   4.506054E+00   5.648529E+00   8.633754E-01   4.433614E+00   7.428552E+00   7.235467E+00   1.456447E+00   3.016050E+00   1.108306E+00   8.666897E-01   2.038701E+00   4.153409E+00   3.566447E+00   6.045357E+00   9.274655E-01   2.238868E-01   7.503423E+00   3.047725E+00   8.966843E-01   1.295734E+01   8.529003E-01   1.164704E+00   5.862091E+00   2.042472E-01   8.873523E-01   1.935380E+00   1.003304E+00   6.327450E-01   6.855915E+00   9.288017E-01   2.017822E-01   4.319952E+00   8.361343E-01   1.267853E+00   1.297958E+01   1.018223E+01   2.196646E+00   7.099307E-01   6.165869E-01   2.031214E-01   6.214033E+00   4.521983E-01   1.059967E+00   5.139177E+00   5.505884E-01   4.921652E+00   2.419580E+00   2.326194E-01   1.614840E+00   8.093358E+00   8.901789E-01   3.831628E+00   6.292580E+00   6.257554E-01   1.425453E+00   3.722281E+00   6.903720E+00   3.744845E+00   3.997923E+00   1.995298E-01   3.247609E+00   1.214719E+01   1.607549E+01   1.250323E+00   6.947483E+00   6.226200E-01   9.038559E-01   8.848638E+00   2.305460E+00   6.476465E-01   1.478610E+01   7.713424E-01   2.502576E-01   9.004645E+00   5.185296E+00   1.380522E+00   1.082304E+01   1.431480E+01   1.265516E+00   6.135033E-01   2.027500E-01   4.493558E+00   6.719848E+00   7.653082E+00   6.615828E-01   3.081679E+00   1.871088E+00   3.656251E+00   3.221109E+00   9.351369E-01   4.755709E+00   5.221530E+00   3.925065E+00   1.600506E+00   4.270815E+00   1.519771E+01   3.803208E+00   3.969374E-01   5.949757E-01   1.188418E+00   3.946754E+00   1.502944E+01   5.492032E-01   3.171125E+00   1.035364E+00   2.099074E+00   7.502423E+00   1.557979E+00   8.999428E-01   1.393199E+01   6.236331E-01   1.083605E+00   1.876585E+00   2.271757E-01   2.213276E+00   5.608808E+00   1.992435E-01   5.603486E-01   8.453999E+00   4.625566E+00   9.353764E-01   5.171042E+00   2.150977E+00   3.514494E-01   1.428108E+01   1.561294E+00   4.038064E+00   4.847544E+00   1.410346E+00   2.138983E+00   3.050473E+00   8.675472E-01   1.752857E+00   7.712780E+00   4.952185E+00   2.720013E-01   1.103724E+01   5.032507E+00   2.689618E+00   1.268577E+00   1.988201E-01   1.048225E+00   8.836258E+00   9.627604E+00   4.026269E+00   3.276123E-01   8.019106E-01   3.469730E-01   2.899103E+00   1.383409E+01   1.518011E+00   9.908762E+00   8.533916E+00   4.133745E+00   2.762511E+00   1.834630E+00   4.233902E+00   9.785606E+00   2.044096E-01   2.935465E+00   2.694541E+00   2.095382E-01   1.929048E+00   6.369633E+00   2.040781E-01   2.141603E+00   7.162443E+00   2.164664E+00   3.005086E+00   4.126523E+00   1.007483E+00   3.630177E-01   8.830859E-01   2.346246E+00   9.339522E-01   6.351534E+00   2.071124E-01   7.712807E-01   7.905863E-01   2.689846E-01   5.602295E-01   1.310243E+01   8.301297E-01   2.821369E+00   1.000443E+01   1.759500E+01   3.166878E+00   9.926053E+00   1.068647E+00  
[...]
<PointData Scalars="Diameter" Vectors="Velocity">
<DataArray type="Float32" Name="Diameter" format="ascii">
  4.000000E-01   4.000000E-01   4.000000E-01   4.000000E-01   4.000000E-01   4.000000E-01   4.000000E-01   4.000000E-01   4.000000E-01   4.000000E-01   4.000000E-01   4.000000E-01   4.000000E-01   4.000000E-01   4.000000E-01   4.000000E-01   4.000000E-01   4.000000E-01   4.000000E-01   4.000000E-01   4.000000E-01   4.000000E-01   4.000000E-01   4.000000E-01   4.000000E-01   4.000000E-01   4.000000E-01   4.000000E-01   4.000000E-01   4.000000E-01   4.000000E-01   4.000000E-01   4.000000E-01   4.000000E-01   4.000000E-01   4.000000E-01   4.000000E-01   4.000000E-01   4.000000E-01   4.000000E-01   4.000000E-01   4.000000E-01   4.000000E-01   4.000000E-01   4.000000E-01   4.000000E-01   4.000000E-01   4.000000E-01   4.000000E-01   4.000000E-01   4.000000E-01   4.000000E-01   4.000000E-01   4.000000E-01   4.000000E-01   4.000000E-01   4.000000E-01   4.000000E-01   4.000000E-01   4.000000E-01   4.000000E-01   4.000000E-01   4.000000E-01   4.000000E-01   4.000000E-01   4.000000E-01   4.000000E-01   4.000000E-01   4.000000E-01   4.000000E-01   4.000000E-01   4.000000E-01   4.000000E-01   4.000000E-01   4.000000E-01   4.000000E-01   4.000000E-01   4.000000E-01   4.000000E-01   4.000000E-01   4.000000E-01   4.000000E-01   4.000000E-01   4.000000E-01   4.000000E-01   4.000000E-01   4.000000E-01   4.000000E-01   4.000000E-01   4.000000E-01   4.000000E-01   4.000000E-01   4.000000E-01   4.000000E-01   4.000000E-01   4.000000E-01   4.000000E-01   4.000000E-01   4.000000E-01   4.000000E-01   4.000000E-01   4.000000E-01   4.000000E-01   4.000000E-01   4.000000E-01   4.000000E-01   4.000000E-01   4.000000E-01   4.000000E-01   4.000000E-01   4.000000E-01   4.000000E-01   4.000000E-01   4.000000E-01   4.000000E-01   4.000000E-01   4.000000E-01   4.000000E-01   4.000000E-01   4.000000E-01   4.000000E-01   4.000000E-01   4.000000E-01   4.000000E-01   4.000000E-01   4.000000E-01   4.000000E-01   4.000000E-01   4.000000E-01   4.000000E-01   4.000000E-01   4.000000E-01   4.000000E-01   4.000000E-01   4.000000E-01   4.000000E-01   4.000000E-01   4.000000E-01   4.000000E-01   4.000000E-01   4.000000E-01   4.000000E-01   4.000000E-01   4.000000E-01   4.000000E-01   4.000000E-01   4.000000E-01   4.000000E-01   4.000000E-01   4.000000E-01   4.000000E-01   4.000000E-01   4.000000E-01   4.000000E-01   4.000000E-01   4.000000E-01   4.000000E-01   4.000000E-01   4.000000E-01   4.000000E-01   4.000000E-01   4.000000E-01   4.000000E-01   4.000000E-01   4.000000E-01   4.000000E-01   4.000000E-01   4.000000E-01   4.000000E-01   4.000000E-01   4.000000E-01   4.000000E-01   4.000000E-01   4.000000E-01   4.000000E-01   4.000000E-01   4.000000E-01   4.000000E-01   4.000000E-01   4.000000E-01   4.000000E-01   4.000000E-01   4.000000E-01   4.000000E-01   4.000000E-01   4.000000E-01   4.000000E-01   4.000000E-01   4.000000E-01   4.000000E-01   4.000000E-01   4.000000E-01   4.000000E-01   4.000000E-01   4.000000E-01   4.000000E-01   4.000000E-01   4.000000E-01   4.000000E-01   4.000000E-01   4.000000E-01   4.000000E-01   4.000000E-01   4.000000E-01   4.000000E-01   4.000000E-01   4.000000E-01   4.000000E-01   4.000000E-01   4.000000E-01   4.000000E-01   4.000000E-01   4.000000E-01   4.000000E-01   4.000000E-01   4.000000E-01   4.000000E-01   4.000000E-01   4.000000E-01   4.000000E-01   4.000000E-01   4.000000E-01   4.000000E-01   4.000000E-01   4.000000E-01   4.000000E-01   4.000000E-01   4.000000E-01   4.000000E-01   4.000000E-01   4.000000E-01   4.000000E-01   4.000000E-01   4.000000E-01   4.000000E-01   4.000000E-01   4.000000E-01   4.000000E-01   4.000000E-01   4.000000E-01   4.000000E-01   4.000000E-01   4.000000E-01   4.000000E-01   4.000000E-01   4.000000E-01   4.000000E-01   4.000000E-01   4.000000E-01   4.000000E-01   4.000000E-01   4.000000E-01   4.000000E-01   4.000000E-01   4.000000E-01   4.000000E-01   4.000000E-01   4.000000E-01   4.000000E-01   4.000000E-01   4.000000E-01   4.000000E-01   4.000000E-01   4.000000E-01   4.000000E-01   4.000000E-01   4.000000E-01   4.000000E-01   4.000000E-01   4.000000E-01   4.000000E-01   4.000000E-01   4.000000E-01   4.000000E-01   4.000000E-01   4.000000E-01   4.000000E-01   4.000000E-01   4.000000E-01   4.000000E-01   4.000000E-01   4.000000E-01   4.000000E-01   4.000000E-01   4.000000E-01   4.000000E-01   4.000000E-01   4.000000E-01   4.000000E-01   4.000000E-01   4.000000E-01   4.000000E-01   4.000000E-01   4.000000E-01   4.000000E-01   4.000000E-01   4.000000E-01   4.000000E-01   4.000000E-01   4.000000E-01   4.000000E-01   4.000000E-01   4.000000E-01   4.000000E-01   4.000000E-01   4.000000E-01   4.000000E-01   4.000000E-01   4.000000E-01   4.000000E-01   4.000000E-01   4.000000E-01   4.000000E-01   4.000000E-01   4.000000E-01   4.000000E-01   4.000000E-01   4.000000E-01   4.000000E-01   4.000000E-01   4.000000E-01   4.000000E-01   4.000000E-01   4.000000E-01   4.000000E-01   4.000000E-01   4.000000E-01   4.000000E-01   4.000000E-01   4.000000E-01   4.000000E-01   4.000000E-01   4.000000E-01   4.000000E-01   4.000000E-01   4.000000E-01   4.000000E-01   4.000000E-01   4.000000E-01   4.000000E-01   4.000000E-01   4.000000E-01   4.000000E-01   4.000000E-01   4.000000E-01   4.000000E-01   4.000000E-01   4.000000E-01   4.000000E-01   4.000000E-01   4.000000E-01   4.000000E-01   4.000000E-01   4.000000E-01   4.000000E-01   4.000000E-01   4.000000E-01   4.000000E-01   4.000000E-01   4.000000E-01   4.000000E-01   4.000000E-01   4.000000E-01   4.000000E-01   4.000000E-01   4.000000E-01   4.000000E-01   4.000000E-01   4.000000E-01   4.000000E-01   4.000000E-01   4.000000E-01   4.000000E-01   4.000000E-01   4.000000E-01   4.000000E-01   4.000000E-01   4.000000E-01   4.000000E-01   4.000000E-01   4.000000E-01   4.000000E-01   4.000000E-01   4.000000E-01   4.000000E-01   4.000000E-01   4.000000E-01   4.000000E-01   4.000000E-01   4.000000E-01   4.000000E-01   4.000000E-01   4.000000E-01   4.000000E-01   4.000000E-01   4.000000E-01   4.000000E-01   4.000000E-01   4.000000E-01   4.000000E-01   4.000000E-01   4.000000E-01   4.000000E-01   4.000000E-01   4.000000E-01   4.000000E-01   4.000000E-01   4.000000E-01   4.000000E-01   4.000000E-01   4.000000E-01   4.000000E-01   4.000000E-01   4.000000E-01   4.000000E-01   4.000000E-01   4.000000E-01   4.000000E-01   4.000000E-01   4.000000E-01   4.000000E-01   4.000000E-01   4.000000E-01   4.000000E-01   4.000000E-01   4.000000E-01   4.000000E-01   4.000000E-01   4.000000E-01   4.000000E-01   4.000000E-01   4.000000E-01   4.000000E-01   4.000000E-01   4.000000E-01   4.000000E-01   4.000000E-01   4.000000E-01   4.000000E-01   4.000000E-01   4.000000E-01   4.000000E-01   4.000000E-01   4.000000E-01   4.000000E-01   4.000000E-01   4.000000E-01   4.000000E-01   4.000000E-01   4.000000E-01   4.000000E-01   4.000000E-01   4.000000E-01   4.000000E-01   4.000000E-01   4.000000E-01   4.000000E-01   4.000000E-01   4.000000E-01   4.000000E-01   4.000000E-01   4.000000E-01   4.000000E-01   4.000000E-01   4.000000E-01   4.000000E-01   4.000000E-01   4.000000E-01   4.000000E-01   4.000000E-01   4.000000E-01   4.000000E-01   4.000000E-01   4.000000E-01   4.000000E-01   4.000000E-01   4.000000E-01   4.000000E-01   4.000000E-01   4.000000E-01   4.000000E-01   4.000000E-01   4.000000E-01   4.000000E-01   4.000000E-01   4.000000E-01   4.000000E-01   4.000000E-01   4.000000E-01   4.000000E-01   4.000000E-01   4.000000E-01   4.000000E-01   4.000000E-01   4.000000E-01   4.000000E-01   4.000000E-01   4.000000E-01   4.000000E-01   4.000000E-01   4.000000E-01   4.000000E-01   4.000000E-01   4.000000E-01   4.000000E-01   4.000000E-01   4.000000E-01   4.000000E-01   4.000000E-01   4.000000E-01   4.000000E-01   4.000000E-01   4.000000E-01   4.000000E-01   4.000000E-01   4.000000E-01   4.000000E-01   4.000000E-01   4.000000E-01   4.000000E-01   4.000000E-01   4.000000E-01   4.000000E-01   4.000000E-01   4.000000E-01   4.000000E-01   4.000000E-01   4.000000E-01   4.000000E-01   4.000000E-01   4.000000E-01   4.000000E-01   4.000000E-01   4.000000E-01   4.000000E-01   4.000000E-01   4.000000E-01   4.000000E-01   4.000000E-01   4.000000E-01   4.000000E-01   4.000000E-01   4.000000E-01   4.000000E-01   4.000000E-01   4.000000E-01   4.000000E-01   4.000000E-01   4.000000E-01   4.000000E-01   4.000000E-01   4.000000E-01   4.000000E-01   4.000000E-01   4.000000E-01   4.000000E-01   4.000000E-01   4.000000E-01   4.000000E-01   4.000000E-01   4.000000E-01   4.000000E-01   4.000000E-01   4.000000E-01   4.000000E-01   4.000000E-01   4.000000E-01   4.000000E-01   4.000000E-01   4.000000E-01   4.000000E-01   4.000000E-01   4.000000E-01   4.000000E-01   4.000000E-01   4.000000E-01   4.000000E-01   4.000000E-01   4.000000E-01   4.000000E-01   4.000000E-01   4.000000E-01   4.000000E-01   4.000000E-01   4.000000E-01   4.000000E-01   4.000000E-01   4.000000E-01   4.000000E-01   4.000000E-01   4.000000E-01   4.000000E-01   4.000000E-01   4.000000E-01   4.000000E-01   4.000000E-01   4.000000E-01   4.000000E-01   4.000000E-01   4.000000E-01   4.000000E-01   4.000000E-01   4.000000E-01   4.000000E-01   4.000000E-01   4.000000E-01   4.000000E-01   4.000000E-01   4.000000E-01   4.000000E-01   4.000000E-01   4.000000E-01   4.000000E-01   4.000000E-01   4.000000E-01   4.000000E-01   4.000000E-01   4.000000E-01   4.000000E-01   4.000000E-01   4.000000E-01   4.000000E-01   4.000000E-01   4.000000E-01   4.000000E-01   4.000000E-01   4.000000E-01   4.000000E-01   4.000000E-01   4.000000E-01   4.000000E-01   4.000000E-01   4.000000E-01   4.000000E-01   4.000000E-01   4.000000E-01   4.000000E-01   4.000000E-01   4.000000E-01   4.000000E-01   4.000000E-01   4.000000E-01   4.000000E-01   4.000000E-01   4.000000E-01   4.000000E-01   4.000000E-01   4.000000E-01   4.000000E-01   4.000000E-01   4.000000E-01   4.000000E-01   4.000000E-01   4.000000E-01   4.000000E-01   4.000000E-01   4.000000E-01   4.000000E-01   4.000000E-01   4.000000E-01   4.000000E-01   4.000000E-01   4.000000E-01   4.000000E-01   4.000000E-01   4.000000E-01   4.000000E-01   4.000000E-01   4.000000E-01   4.000000E-01   4.000000E-01   4.000000E-01   4.000000E-01   4.000000E-01   4.000000E-01   4.000000E-01   4.000000E-01   4.000000E-01   4.000000E-01   4.000000E-01   4.000000E-01   4.000000E-01   4.000000E-01   4.000000E-01   4.000000E-01   4.000000E-01   4.000000E-01   4.000000E-01   4.000000E-01   4.000000E-01   4.000000E-01   4.000000E-01   4.000000E-01   4.000000E-01   4.000000E-01   4.000000E-01   4.000000E-01   4.000000E-01   4.000000E-01   4.000000E-01   4.000000E-01   4.000000E-01   4.000000E-01   4.000000E-01   4.000000E-01   4.000000E-01   4.000000E-01   4.000000E-01   4.000000E-01   4.000000E-01   4.000000E-01   4.000000E-01   4.000000E-01   4.000000E-01   4.000000E-01   4.000000E-01   4.000000E-01   4.000000E-01   4.000000E-01   4.000000E-01   4.000000E-01   4.000000E-01   4.000000E-01   4.000000E-01   4.000000E-01   4.000000E-01   4.000000E-01   4.000000E-01   4.000000E-01   4.000000E-01   4.000000E-01   4.000000E-01   4.000000E-01   4.000000E-01   4.000000E-01   4.000000E-01   4.000000E-01   4.000000E-01   4.000000E-01   4.000000E-01   4.000000E-01   4.000000E-01   4.000000E-01   4.000000E-01   4.000000E-01   4.000000E-01   4.000000E-01   4.000000E-01   4.000000E-01   4.000000E-01   4.000000E-01   4.000000E-01   4.000000E-01   4.000000E-01   4.000000E-01   4.000000E-01   4.000000E-01   4.000000E-01   4.000000E-01   4.000000E-01   4.000000E-01   4.000000E-01   4.000000E-01   4.000000E-01   4.000000E-01   4.000000E-01   4.000000E-01   4.000000E-01   4.000000E-01   4.000000E-01   4.000000E-01   4.000000E-01   4.000000E-01   4.000000E-01   4.000000E-01   4.000000E-01   4.000000E-01   4.000000E-01   4.000000E-01   4.000000E-01   4.000000E-01   4.000000E-01   4.000000E-01   4.000000E-01   4.000000E-01   4.000000E-01   4.000000E-01   4.000000E-01   4.000000E-01   4.000000E-01   4.000000E-01   4.000000E-01   4.000000E-01   4.000000E-01   4.000000E-01   4.000000E-01   4.000000E-01   4.000000E-01   4.000000E-01   4.000000E-01   4.000000E-01   4.000000E-01   4.000000E-01   4.000000E-01   4.000000E-01   4.000000E-01   4.000000E-01   4.000000E-01   4.000000E-01   4.000000E-01   4.000000E-01   4.000000E-01   4.000000E-01   4.000000E-01   4.000000E-01   4.000000E-01   4.000000E-01   4.000000E-01   4.000000E-01   4.000000E-01   4.000000E-01   4.000000E-01   4.000000E-01   4.000000E-01   4.000000E-01   4.000000E-01   4.000000E-01   4.000000E-01   4.000000E-01   4.000000E-01   4.000000E-01   4.000000E-01   4.000000E-01   4.000000E-01   4.000000E-01   4.000000E-01   4.000000E-01   4.000000E-01   4.000000E-01   4.000000E-01   4.000000E-01   4.000000E-01   4.000000E-01   4.000000E-01   4.000000E-01   4.000000E-01   4.000000E-01   4.000000E-01   4.000000E-01   4.000000E-01   4.000000E-01   4.000000E-01   4.000000E-01   4.000000E-01   4.000000E-01   4.000000E-01   4.000000E-01   4.000000E-01   4.000000E-01   4.000000E-01   4.000000E-01   4.000000E-01   4.000000E-01   4.000000E-01   4.000000E-01   4.000000E-01   4.000000E-01   4.000000E-01   4.000000E-01   4.000000E-01   4.000000E-01   4.000000E-01   4.000000E-01   4.000000E-01   4.000000E-01   4.000000E-01   4.000000E-01   4.000000E-01   4.000000E-01   4.000000E-01   4.000000E-01   4.000000E-01   4.000000E-01   4.000000E-01   4.000000E-01   4.000000E-01   4.000000E-01   4.000000E-01   4.000000E-01   4.000000E-01   4.000000E-01   4.000000E-01   4.000000E-01   4.000000E-01   4.000000E-01   4.000000E-01   4.000000E-01   4.000000E-01   4.000000E-01   4.000000E-01   4.000000E-01   4.000000E-01   4.000000E-01   4.000000E-01   4.000000E-01   4.000000E-01   4.000000E-01   4.000000E-01   4.000000E-01   4.000000E-01   4.000000E-01   4.000000E-01   4.000000E-01   4.000000E-01   4.000000E-01   4.000000E-01   4.000000E-01   4.000000E-01   4.000000E-01   4.000000E-01   4.000000E-01   4.000000E-01   4.000000E-01   4.000000E-01   4.000000E-01   4.000000E-01   4.000000E-01   4.000000E-01   4.000000E-01   4.000000E-01   4.000000E-01   4.000000E-01   4.000000E-01   4.000000E-01   4.000000E-01   4.000000E-01   4.000000E-01   4.000000E-01   4.000000E-01   4.000000E-01   4.000000E-01   4.000000E-01   4.000000E-01   4.000000E-01   4.000000E-01   4.000000E-01   4.000000E-01   4.000000E-01   4.000000E-01   4.000000E-01   4.000000E-01   4.000000E-01   4.000000E-01   4.000000E-01   4.000000E-01   4.000000E-01   4.000000E-01   4.000000E-01   4.000000E-01   4.000000E-01   4.000000E-01   4.000000E-01   4.000000E-01   4.000000E-01   4.000000E-01   4.000000E-01   4.000000E-01   4.000000E-01   4.000000E-01   4.000000E-01   4.000000E-01   4.000000E-01   4.000000E-01   4.000000E-01   4.000000E-01   4.000000E-01   4.000000E-01   4.000000E-01   4.000000E-01   4.000000E-01   4.000000E-01   4.000000E-01   4.000000E-01   4.000000E-01   4.000000E-01   4.000000E-01   4.000000E-01   4.000000E-01   4.000000E-01   4.000000E-01   4.000000E-01   4.000000E-01   4.000000E-01   4.000000E-01   4.000000E-01   4.000000E-01   4.000000E-01   4.000000E-01   4.000000E-01   4.000000E-01   4.000000E-01   4.000000E-01   4.000000E-01   4.000000E-01   4.000000E-01   4.000000E-01   4.000000E-01   4.000000E-01   4.000000E-01   4.000000E-01   4.000000E-01   4.000000E-01   4.000000E-01   4.000000E-01   4.000000E-01   4.000000E-01   4.000000E-01   4.000000E-01   4.000000E-01   4.000000E-01   4.000000E-01   4.000000E-01   4.000000E-01   4.000000E-01   4.000000E-01   4.000000E-01   4.000000E-01   4.000000E-01   4.000000E-01   4.000000E-01   4.000000E-01   4.000000E-01   4.000000E-01   4.000000E-01   4.000000E-01   4.000000E-01   4.000000E-01   4.000000E-01   4.000000E-01   4.000000E-01   4.000000E-01   4.000000E-01   4.000000E-01   4.000000E-01   4.000000E-01   4.000000E-01   4.000000E-01   4.000000E-01   4.000000E-01   4.000000E-01   4.000000E-01   4.000000E-01   4.000000E-01   4.000000E-01   4.000000E-01   4.000000E-01   4.000000E-01   4.000000E-01   4.000000E-01   4.000000E-01   4.000000E-01   4.000000E-01   4.000000E-01   4.000000E-01   4.000000E-01   4.000000E-01   4.000000E-01   4.000000E-01   4.000000E-01   4.000000E-01   4.000000E-01   4.000000E-01   4.000000E-01   4.000000E-01   4.000000E-01   4.000000E-01   4.000000E-01   4.000000E-01   4.000000E-01   4.000000E-01   4.000000E-01   4.000000E-01   4.000000E-01   4.000000E-01   4.000000E-01   4.000000E-01   4.000000E-01   4.000000E-01   4.000000E-01   4.000000E-01   4.000000E-01   4.000000E-01   4.000000E-01   4.000000E-01   4.000000E-01   4.000000E-01   4.000000E-01   4.000000E-01   4.000000E-01   4.000000E-01   4.000000E-01   4.000000E-01   4.000000E-01   4.000000E-01   4.000000E-01   4.000000E-01   4.000000E-01   4.000000E-01   4.000000E-01   4.000000E-01   4.000000E-01   4.000000E-01   4.000000E-01   4.000000E-01   4.000000E-01   4.000000E-01   4.000000E-01   4.000000E-01   4.000000E-01   4.000000E-01   4.000000E-01   4.000000E-01   4.000000E-01   4.000000E-01   4.000000E-01   4.000000E-01   4.000000E-01   4.000000E-01   4.000000E-01   4.000000E-01   4.000000E-01   4.000000E-01   4.000000E-01   4.000000E-01   4.000000E-01   4.000000E-01   4.000000E-01   4.000000E-01   4.000000E-01   4.000000E-01   4.000000E-01   4.000000E-01   4.000000E-01   4.000000E-01   4.000000E-01   4.000000E-01   4.000000E-01   4.000000E-01   4.000000E-01   4.000000E-01   4.000000E-01   4.000000E-01   4.000000E-01   4.000000E-01   4.000000E-01   4.000000E-01   4.000000E-01   4.000000E-01   4.000000E-01   4.000000E-01   4.000000E-01   4.000000E-01   4.000000E-01   4.000000E-01   4.000000E-01   4.000000E-01   4.000000E-01   4.000000E-01   4.000000E-01   4.000000E-01   4.000000E-01   4.000000E-01   4.000000E-01   4.000000E-01   4.000000E-01   4.000000E-01   4.000000E-01   4.000000E-01   4.000000E-01   4.000000E-01   4.000000E-01   4.000000E-01   4.000000E-01   4.000000E-01   4.000000E-01   4.000000E-01   4.000000E-01   4.000000E-01   4.000000E-01   4.000000E-01   4.000000E-01   4.000000E-01   4.000000E-01   4.000000E-01   4.000000E-01   4.000000E-01   4.000000E-01   4.000000E-01   4.000000E-01   4.000000E-01   4.000000E-01   4.000000E-01   4.000000E-01   4.000000E-01   4.000000E-01   4.000000E-01   4.000000E-01   4.000000E-01   4.000000E-01   4.000000E-01   4.000000E-01   4.000000E-01   4.000000E-01   4.000000E-01   4.000000E-01   4.000000E-01   4.000000E-01   4.000000E-01   4.000000E-01   4.000000E-01   4.000000E-01   4.000000E-01   4.000000E-01   4.000000E-01   4.000000E-01   4.000000E-01   4.000000E-01   4.000000E-01   4.000000E-01   4.000000E-01   4.000000E-01   4.000000E-01   4.000000E-01   4.000000E-01   4.000000E-01   4.000000E-01   4.000000E-01   4.000000E-01   4.000000E-01   4.000000E-01   4.000000E-01   4.000000E-01   4.000000E-01   4.000000E-01   4.000000E-01   4.000000E-01   4.000000E-01   4.000000E-01   4.000000E-01   4.000000E-01   4.000000E-01   4.000000E-01   4.000000E-01   4.000000E-01   4.000000E-01   4.000000E-01   4.000000E-01   4.000000E-01   4.000000E-01   4.000000E-01   4.000000E-01   4.000000E-01   4.000000E-01   4.000000E-01   4.000000E-01   4.000000E-01   4.000000E-01   4.000000E-01   4.000000E-01   4.000000E-01   4.000000E-01   4.000000E-01   4.000000E-01   4.000000E-01   4.000000E-01   4.000000E-01   4.000000E-01   4.000000E-01   4.000000E-01   4.000000E-01   4.000000E-01   4.000000E-01   4.000000E-01   4.000000E-01   4.000000E-01   4.000000E-01   4.000000E-01   4.000000E-01   4.000000E-01   4.000000E-01   4.000000E-01   4.000000E-01   4.000000E-01   4.000000E-01   4.000000E-01   4.000000E-01   4.000000E-01   4.000000E-01   4.000000E-01   4.000000E-01   4.000000E-01   4.000000E-01   4.000000E-01   4.000000E-01   4.000000E-01   4.000000E-01   4.000000E-01   4.000000E-01   4.000000E-01   4.000000E-01   4.000000E-01   4.000000E-01   4.000000E-01   4.000000E-01   4.000000E-01   4.000000E-01   4.000000E-01   4.000000E-01   4.000000E-01   4.000000E-01   4.000000E-01   4.000000E-01   4.000000E-01   4.000000E-01   4.000000E-01   4.000000E-01   