<?xml version="1.0"?>
<!-- Time =  4.9998362602810231E-01s -->
<VTKFile type="PolyData" version="0.1" byte_order="LittleEndian">
<PolyData>
<Piece NumberOfPoints="0000002400" NumberOfVerts="0" NumberOfLines="0" NumberOfStrips="0" NumberOfPolys="0">
<Points>
<DataArray type="Float32" Name="Position" NumberOfComponents="3" format="ascii">
  2.753733E-01   2.041433E-01   2.171550E-01   1.290853E+00   1.972658E-01   2.136751E-01   1.932571E+00   2.008236E-01   2.081632E-01   2.342679E+00   2.304315E-01   2.000110E-01   2.749430E+00   2.016663E-01   2.379881E-01   3.779957E+00   2.008353E-01   2.046893E-01   4.377175E+00   2.221342E-01   2.591529E-01   4.822143E+00   1.990713E-01   1.999077E-01   5.226102E+00   1.997093E-01   1.996267E-01   5.847549E+00   1.996180E-01   2.012004E-01   6.242626E+00   2.008226E-01   3.552886E-01   6.649789E+00   2.019944E-01   2.079909E-01   6.346559E+00   8.863494E-01   4.020056E-01   4.618332E+00   9.999988E+00   1.500167E+00   6.815735E+00   1.014183E+00   2.398740E-01   6.839812E+00   6.659751E-01   6.260595E-01   2.620787E+00   4.431802E+00   1.769485E+00   5.390374E+00   8.742512E-01   6.635525E-01   5.858661E+00   5.672894E-01   1.555599E+00   6.151004E+00   8.437408E-01   1.520311E+00   1.271944E+01   1.189619E+01   2.290864E+00   8.557084E+00   4.938444E-01   4.566939E-01   7.948922E+00   1.029768E+00   2.822101E-01   8.002120E+00   3.182112E-01   2.219228E-01   9.067593E+00   2.003780E-01   2.206905E-01   9.930113E+00   1.995888E-01   1.998642E-01   1.034252E+01   1.998059E-01   2.069118E-01   1.095123E+01   1.996570E-01   2.043393E-01   1.165845E+01   1.998224E-01   1.998982E-01   1.205903E+01   1.999327E-01   2.003356E-01   1.245892E+01   1.998430E-01   2.031695E-01   1.311635E+01   1.996389E-01   1.998775E-01   1.365551E+01   1.994467E-01   2.037006E-01   1.408384E+01   2.046865E-01   1.987321E-01   1.448674E+01   1.999421E-01   2.029756E-01   1.962505E-01   5.609516E-01   4.212967E-01   9.996351E-01   2.214838E-01   5.229069E-01   1.584441E+00   4.718905E-01   2.050903E-01   2.119546E+00   6.286253E-01   2.543801E-01   2.623257E+00   5.461163E-01   4.052415E-01   3.308514E+00   2.026421E-01   2.029055E-01   4.047413E+00   4.171974E-01   4.270626E-01   4.628994E+00   5.494705E-01   2.102910E-01   5.021525E+00   5.228332E-01   3.215231E-01   5.486751E+00   5.044652E-01   2.012946E-01   6.084433E+00   5.374972E-01   2.029373E-01   6.482768E+00   5.650582E-01   1.975782E-01   7.411871E+00   7.244881E-01   2.231574E-01   5.845867E+00   8.036105E-01   4.016726E-01   7.926170E+00   1.512852E+00   4.900955E-01   6.465447E+00   1.837845E+00   6.833575E-01   6.009835E+00   5.868519E+00   1.116258E+00   2.025172E+00   6.070191E+00   1.598935E+00   6.271714E+00   3.152973E+00   8.230162E-01   6.256492E+00   1.958211E+00   1.724786E+00   8.777554E+00   8.539624E-01   8.431593E-01   8.173428E+00   9.234290E-01   8.463730E-01   8.646816E+00   2.236502E+00   1.963190E+00   8.426115E+00   2.013808E-01   2.058382E-01   9.527602E+00   1.999259E-01   1.999982E-01   1.013606E+01   5.422906E-01   2.035162E-01   1.064688E+01   4.590877E-01   1.999956E-01   1.130484E+01   3.864708E-01   2.000800E-01   1.185311E+01   5.478320E-01   2.306211E-01   1.225175E+01   5.565940E-01   2.004825E-01   1.278703E+01   4.283937E-01   2.225509E-01   1.338055E+01   4.924224E-01   2.702486E-01   1.385753E+01   5.423401E-01   2.224957E-01   1.429255E+01   5.682704E-01   2.150831E-01   1.479835E+01   4.573434E-01   1.986702E-01   5.282137E-01   5.276170E-01   2.039336E-01   7.586365E-01   1.989707E-01   1.927842E-01   1.250815E+00   7.459019E-01   1.956977E-01   1.983394E+00   1.201619E+00   9.922351E-01   2.865934E+00   1.118926E+00   4.116599E-01   2.977970E+00   5.271257E-01   2.102612E-01   3.540434E+00   5.211921E-01   2.665701E-01   4.416862E+00   5.275397E-01   5.588477E-01   4.256268E+00   7.059674E-01   2.382137E-01   4.671076E+00   8.603671E-01   5.692447E-01   5.743696E+00   6.697525E-01   8.188410E-01   6.922963E+00   5.917202E-01   2.075349E-01   7.018342E+00   2.916539E-01   4.737714E-01   4.868967E+00   1.140762E+01   1.596758E+00   7.344161E+00   1.345744E+01   2.541641E+00   4.537773E+00   9.022344E-01   1.088561E+00   7.459827E+00   1.244517E+00   2.274622E-01   6.201509E+00   9.231004E-01   1.065990E+00   5.873417E+00   8.476754E-01   4.279073E+00   9.509700E+00   1.284664E+00   1.158388E+00   1.347863E+01   9.488423E+00   4.888605E+00   1.150550E+01   8.117361E-01   2.221791E+00   6.343397E+00   1.441246E+00   3.451334E-01   6.906683E+00   1.379780E+00   5.124123E-01   8.147811E+00   6.902362E-01   3.868292E-01   9.729432E+00   5.257304E-01   3.154934E-01   1.043952E+01   7.935215E-01   2.717843E-01   1.100029E+01   6.462221E-01   2.003234E-01   1.150082E+01   7.352816E-01   2.000808E-01   1.205328E+01   8.781030E-01   3.414684E-01   1.258432E+01   7.770295E-01   2.281822E-01   1.304917E+01   6.927940E-01   3.880808E-01   1.356189E+01   8.479358E-01   2.202113E-01   1.391295E+01   7.707154E-01   5.475605E-01   1.452192E+01   9.041375E-01   8.146482E-01   1.901488E-01   2.024847E-01   6.877269E-01   1.601086E+00   2.023852E-01   5.161915E-01   2.108228E+00   2.222552E-01   5.707144E-01   2.506495E+00   2.022150E-01   5.716560E-01   3.046090E+00   2.026269E-01   5.176451E-01   3.577002E+00   2.145608E-01   6.039407E-01   4.233253E+00   2.007030E-01   7.106791E-01   5.048037E+00   1.996569E-01   5.577981E-01   5.536341E+00   1.999988E-01   4.567010E-01   6.120795E+00   1.993473E-01   7.426329E-01   6.544611E+00   2.033481E-01   6.252643E-01   5.433485E+00   9.686861E+00   3.013810E+00   8.103301E+00   5.388522E+00   2.479097E+00   5.060138E+00   1.195147E+00   3.132604E+00   1.245541E+01   1.512594E+01   1.555967E+00   5.986981E+00   2.899175E+01   1.799637E+00   5.787097E+00   9.143941E-01   1.866189E+00   3.775377E+00   2.484409E+01   9.571101E-01   8.374491E+00   2.952951E+01   2.219802E+00   5.645256E+00   2.296803E+01   3.882184E+00   7.381616E+00   2.906126E+01   1.778256E+00   3.075289E+00   1.001763E+01   1.661188E+00   1.205022E+01   9.836296E-01   3.237586E+00   6.635149E+00   2.400884E+00   1.027091E+00   7.990430E+00   3.814909E-01   6.777547E-01   8.696151E+00   2.002435E-01   1.149704E+00   1.013039E+01   1.998566E-01   5.461926E-01   1.067398E+01   1.997139E-01   5.032656E-01   1.120951E+01   1.999740E-01   5.409395E-01   1.170167E+01   1.998930E-01   8.396940E-01   1.222390E+01   1.997868E-01   8.712925E-01   1.265054E+01   2.029084E-01   7.568161E-01   1.315926E+01   1.999286E-01   9.154665E-01   1.376496E+01   2.048358E-01   6.061093E-01   1.450847E+01   2.689170E-01   8.013526E-01   5.655481E-01   2.288507E-01   5.518105E-01   5.472785E-01   2.068634E-01   9.456912E-01   1.305563E+00   5.080605E-01   5.168396E-01   2.253849E+00   7.889221E-01   8.206973E-01   3.186107E+00   8.509396E-01   9.913902E-01   3.253532E+00   5.495763E-01   6.516593E-01   3.861208E+00   2.459950E-01   9.156021E-01   4.646797E+00   2.011138E-01   5.615549E-01   5.325702E+00   4.799818E-01   6.557524E-01   5.874310E+00   4.264524E-01   5.277408E-01   6.460237E+00   2.004552E-01   1.041581E+00   7.181485E+00   1.266240E+00   9.151825E-01   1.170305E+01   8.845655E+00   2.233750E+00   1.084136E+01   1.443351E+01   1.470757E+00   1.284549E+01   1.175652E+01   1.153820E+00   3.857414E+00   7.971575E+00   1.062858E+00   3.354292E+00   5.233980E-01   1.152912E+00   4.970148E+00   9.044476E-01   2.068736E-01   1.418341E+01   1.500810E+00   2.163192E-01   8.563748E+00   5.028051E-01   9.261236E-01   1.343667E+01   1.025693E+01   2.741224E+00   5.801781E+00   1.807470E+01   2.320096E+00   9.087962E+00   9.475994E+00   7.834909E-01   6.191422E+00   4.670878E+00   1.149558E+00   8.910736E+00   2.039155E-01   6.221243E-01   9.330497E+00   2.007297E-01   5.552481E-01   1.040294E+01   4.922237E-01   5.323071E-01   1.093239E+01   4.723046E-01   6.407236E-01   1.155378E+01   4.031184E-01   5.280744E-01   1.196667E+01   3.272741E-01   5.682797E-01   1.236417E+01   3.865909E-01   5.465461E-01   1.298186E+01   3.253557E-01   5.616921E-01   1.336464E+01   2.024543E-01   5.635703E-01   1.413266E+01   3.633475E-01   6.351725E-01   1.478248E+01   2.006230E-01   5.083198E-01   6.212383E-01   7.078710E-01   5.848578E-01   8.994164E-01   4.880937E-01   8.025975E-01   1.710267E+00   6.750572E-01   5.598145E-01   2.644960E+00   5.334317E-01   8.167815E-01   2.929598E+00   5.490313E-01   1.192741E+00   3.262370E+00   1.289121E+00   1.114107E+00   3.631245E+00   6.162316E-01   7.625860E-01   4.487081E+00   5.217804E-01   9.515484E-01   4.861379E+00   5.282996E-01   6.915675E-01   6.138317E+00   5.324658E-01   9.631674E-01   6.303414E+00   5.208619E-01   5.872905E-01   6.876284E+00   2.626760E-01   8.499848E-01   5.508327E+00   3.403418E+00   9.030207E-01   1.051243E+01   1.670035E+01   1.412744E+00   5.065651E+00   4.591000E+00   1.944889E-01   6.573686E+00   5.610555E-01   9.120375E-01   4.105823E+00   9.215335E-01   2.155671E+00   5.145974E+00   8.024201E-01   1.305826E+00   7.703812E+00   1.355159E+00   1.462687E+00   1.047424E+01   9.271206E+00   8.949198E-01   1.116100E+01   1.612072E+01   9.750834E-01   1.112970E+01   6.169627E-01   3.663278E+00   9.754700E+00   1.897820E+01   1.600320E+00   9.185176E+00   4.428124E+00   2.810946E+00   7.580403E+00   1.232885E+00   7.555603E-01   9.302118E+00   5.132251E-01   3.051164E-01   9.730308E+00   2.000386E-01   5.474964E-01   1.028537E+01   5.987642E-01   8.995607E-01   1.125478E+01   6.679816E-01   5.079972E-01   1.181533E+01   6.954502E-01   6.066294E-01   1.216876E+01   6.362093E-01   7.943270E-01   1.269120E+01   6.139388E-01   5.801703E-01   1.326011E+01   5.869378E-01   7.344075E-01   1.366318E+01   5.676255E-01   7.954962E-01   1.480499E+01   5.856230E-01   8.031418E-01   2.195907E-01   2.172481E-01   1.178518E+00   1.297414E+00   2.167430E-01   8.220779E-01   1.769677E+00   1.997666E-01   8.827693E-01   2.845993E+00   2.030621E-01   9.123057E-01   3.554188E+00   2.040574E-01  
[...]
<PointData Scalars="Diameter" Vectors="Velocity">
<DataArray type="Float32" Name="Diameter" format="ascii">
  4.000000E-01   4.000000E-01   4.000000E-01   4.000000E-01   4.000000E-01   4.000000E-01   4.000000E-01   4.000000E-01   4.000000E-01   4.000000E-01   4.000000E-01   4.000000E-01   4.000000E-01   4.000000E-01   4.000000E-01   4.000000E-01   4.000000E-01   4.000000E-01   4.000000E-01   4.000000E-01   4.000000E-01   4.000000E-01   4.000000E-01   4.000000E-01   4.000000E-01   4.000000E-01   4.000000E-01   4.000000E-01   4.000000E-01   4.000000E-01   4.000000E-01   4.000000E-01   4.000000E-01   4.000000E-01   4.000000E-01   4.000000E-01   4.000000E-01   4.000000E-01   4.000000E-01   4.000000E-01   4.000000E-01   4.000000E-01   4.000000E-01   4.000000E-01   4.000000E-01   4.000000E-01   4.000000E-01   4.000000E-01   4.000000E-01   4.000000E-01   4.000000E-01   4.000000E-01   4.000000E-01   4.000000E-01   4.000000E-01   4.000000E-01   4.000000E-01   4.000000E-01   4.000000E-01   4.000000E-01   4.000000E-01   4.000000E-01   4.000000E-01   4.000000E-01   4.000000E-01   4.000000E-01   4.000000E-01   4.000000E-01   4.000000E-01   4.000000E-01   4.000000E-01   4.000000E-01   4.000000E-01   4.000000E-01   4.000000E-01   4.000000E-01   4.000000E-01   4.000000E-01   4.000000E-01   4.000000E-01   4.000000E-01   4.000000E-01   4.000000E-01   4.000000E-01   4.000000E-01   4.000000E-01   4.000000E-01   4.000000E-01   4.000000E-01   4.000000E-01   4.000000E-01   4.000000E-01   4.000000E-01   4.000000E-01   4.000000E-01   4.000000E-01   4.000000E-01   4.000000E-01   4.000000E-01   4.000000E-01   4.000000E-01   4.000000E-01   4.000000E-01   4.000000E-01   4.000000E-01   4.000000E-01   4.000000E-01   4.000000E-01   4.000000E-01   4.000000E-01   4.000000E-01   4.000000E-01   4.000000E-01   4.000000E-01   4.000000E-01   4.000000E-01   4.000000E-01   4.000000E-01   4.000000E-01   4.000000E-01   4.000000E-01   4.000000E-01   4.000000E-01   4.000000E-01   4.000000E-01   4.000000E-01   4.000000E-01   4.000000E-01   4.000000E-01   4.000000E-01   4.000000E-01   4.000000E-01   4.000000E-01   4.000000E-01   4.000000E-01   4.000000E-01   4.000000E-01   4.000000E-01   4.000000E-01   4.000000E-01   4.000000E-01   4.000000E-01   4.000000E-01   4.000000E-01   4.000000E-01   4.000000E-01   4.000000E-01   4.000000E-01   4.000000E-01   4.000000E-01   4.000000E-01   4.000000E-01   4.000000E-01   4.000000E-01   4.000000E-01   4.000000E-01   4.000000E-01   4.000000E-01   4.000000E-01   4.000000E-01   4.000000E-01   4.000000E-01   4.000000E-01   4.000000E-01   4.000000E-01   4.000000E-01   4.000000E-01   4.000000E-01   4.000000E-01   4.000000E-01   4.000000E-01   4.000000E-01   4.000000E-01   4.000000E-01   4.000000E-01   4.000000E-01   4.000000E-01   4.000000E-01   4.000000E-01   4.000000E-01   4.000000E-01   4.000000E-01   4.000000E-01   4.000000E-01   4.000000E-01   4.000000E-01   4.000000E-01   4.000000E-01   4.000000E-01   4.000000E-01   4.000000E-01   4.000000E-01   4.000000E-01   4.000000E-01   4.000000E-01   4.000000E-01   4.000000E-01   4.000000E-01   4.000000E-01   4.000000E-01   4.000000E-01   4.000000E-01   4.000000E-01   4.000000E-01   4.000000E-01   4.000000E-01   4.000000E-01   4.000000E-01   4.000000E-01   4.000000E-01   4.000000E-01   4.000000E-01   4.000000E-01   4.000000E-01   4.000000E-01   4.000000E-01   4.000000E-01   4.000000E-01   4.000000E-01   4.000000E-01   4.000000E-01   4.000000E-01   4.000000E-01   4.000000E-01   4.000000E-01   4.000000E-01   4.000000E-01   4.000000E-01   4.000000E-01   4.000000E-01   4.000000E-01   4.000000E-01   4.000000E-01   4.000000E-01   4.000000E-01   4.000000E-01   4.000000E-01   4.000000E-01   4.000000E-01   4.000000E-01   4.000000E-01   4.000000E-01   4.000000E-01   4.000000E-01   4.000000E-01   4.000000E-01   4.000000E-01   4.000000E-01   4.000000E-01   4.000000E-01   4.000000E-01   4.000000E-01   4.000000E-01   4.000000E-01   4.000000E-01   4.000000E-01   4.000000E-01   4.000000E-01   4.000000E-01   4.000000E-01   4.000000E-01   4.000000E-01   4.000000E-01   4.000000E-01   4.000000E-01   4.000000E-01   4.000000E-01   4.000000E-01   4.000000E-01   4.000000E-01   4.000000E-01   4.000000E-01   4.000000E-01   4.000000E-01   4.000000E-01   4.000000E-01   4.000000E-01   4.000000E-01   4.000000E-01   4.000000E-01   4.000000E-01   4.000000E-01   4.000000E-01   4.000000E-01   4.000000E-01   4.000000E-01   4.000000E-01   4.000000E-01   4.000000E-01   4.000000E-01   4.000000E-01   4.000000E-01   4.000000E-01   4.000000E-01   4.000000E-01   4.000000E-01   4.000000E-01   4.000000E-01   4.000000E-01   4.000000E-01   4.000000E-01   4.000000E-01   4.000000E-01   4.000000E-01   4.000000E-01   4.000000E-01   4.000000E-01   4.000000E-01   4.000000E-01   4.000000E-01   4.000000E-01   4.000000E-01   4.000000E-01   4.000000E-01   4.000000E-01   4.000000E-01   4.000000E-01   4.000000E-01   4.000000E-01   4.000000E-01   4.000000E-01   4.000000E-01   4.000000E-01   4.000000E-01   4.000000E-01   4.000000E-01   4.000000E-01   4.000000E-01   4.000000E-01   4.000000E-01   4.000000E-01   4.000000E-01   4.000000E-01   4.000000E-01   4.000000E-01   4.000000E-01   4.000000E-01   4.000000E-01   4.000000E-01   4.000000E-01   4.000000E-01   4.000000E-01   4.000000E-01   4.000000E-01   4.000000E-01   4.000000E-01   4.000000E-01   4.000000E-01   4.000000E-01   4.000000E-01   4.000000E-01   4.000000E-01   4.000000E-01   4.000000E-01   4.000000E-01   4.000000E-01   4.000000E-01   4.000000E-01   4.000000E-01   4.000000E-01   4.000000E-01   4.000000E-01   4.000000E-01   4.000000E-01   4.000000E-01   4.000000E-01   4.000000E-01   4.000000E-01   4.000000E-01   4.000000E-01   4.000000E-01   4.000000E-01   4.000000E-01   4.000000E-01   4.000000E-01   4.000000E-01   4.000000E-01   4.000000E-01   4.000000E-01   4.000000E-01   4.000000E-01   4.000000E-01   4.000000E-01   4.000000E-01   4.000000E-01   4.000000E-01   4.000000E-01   4.000000E-01   4.000000E-01   4.000000E-01   4.000000E-01   4.000000E-01   4.000000E-01   4.000000E-01   4.000000E-01   4.000000E-01   4.000000E-01   4.000000E-01   4.000000E-01   4.000000E-01   4.000000E-01   4.000000E-01   4.000000E-01   4.000000E-01   4.000000E-01   4.000000E-01   4.000000E-01   4.000000E-01   4.000000E-01   4.000000E-01   4.000000E-01   4.000000E-01   4.000000E-01   4.000000E-01   4.000000E-01   4.000000E-01   4.000000E-01   4.000000E-01   4.000000E-01   4.000000E-01   4.000000E-01   4.000000E-01   4.000000E-01   4.000000E-01   4.000000E-01   4.000000E-01   4.000000E-01   4.000000E-01   4.000000E-01   4.000000E-01   4.000000E-01   4.000000E-01   4.000000E-01   4.000000E-01   4.000000E-01   4.000000E-01   4.000000E-01   4.000000E-01   4.000000E-01   4.000000E-01   4.000000E-01   4.000000E-01   4.000000E-01   4.000000E-01   4.000000E-01   4.000000E-01   4.000000E-01   4.000000E-01   4.000000E-01   4.000000E-01   4.000000E-01   4.000000E-01   4.000000E-01   4.000000E-01   4.000000E-01   4.000000E-01   4.000000E-01   4.000000E-01   4.000000E-01   4.000000E-01   4.000000E-01   4.000000E-01   4.000000E-01   4.000000E-01   4.000000E-01   4.000000E-01   4.000000E-01   4.000000E-01   4.000000E-01   4.000000E-01   4.000000E-01   4.000000E-01   4.000000E-01   4.000000E-01   4.000000E-01   4.000000E-01   4.000000E-01   4.000000E-01   4.000000E-01   4.000000E-01   4.000000E-01   4.000000E-01   4.000000E-01   4.000000E-01   4.000000E-01   4.000000E-01   4.000000E-01   4.000000E-01   4.000000E-01   4.000000E-01   4.000000E-01   4.000000E-01   4.000000E-01   4.000000E-01   4.000000E-01   4.000000E-01   4.000000E-01   4.000000E-01   4.000000E-01   4.000000E-01   4.000000E-01   4.000000E-01   4.000000E-01   4.000000E-01   4.000000E-01   4.000000E-01   4.000000E-01   4.000000E-01   4.000000E-01   4.000000E-01   4.000000E-01   4.000000E-01   4.000000E-01   4.000000E-01   4.000000E-01   4.000000E-01   4.000000E-01   4.000000E-01   4.000000E-01   4.000000E-01   4.000000E-01   4.000000E-01   4.000000E-01   4.000000E-01   4.000000E-01   4.000000E-01   4.000000E-01   4.000000E-01   4.000000E-01   4.000000E-01   4.000000E-01   4.000000E-01   4.000000E-01   4.000000E-01   4.000000E-01   4.000000E-01   4.000000E-01   4.000000E-01   4.000000E-01   4.000000E-01   4.000000E-01   4.000000E-01   4.000000E-01   4.000000E-01   4.000000E-01   4.000000E-01   4.000000E-01   4.000000E-01   4.000000E-01   4.000000E-01   4.000000E-01   4.000000E-01   4.000000E-01   4.000000E-01   4.000000E-01   4.000000E-01   4.000000E-01   4.000000E-01   4.000000E-01   4.000000E-01   4.000000E-01   4.000000E-01   4.000000E-01   4.000000E-01   4.000000E-01   4.000000E-01   4.000000E-01   4.000000E-01   4.000000E-01   4.000000E-01   4.000000E-01   4.000000E-01   4.000000E-01   4.000000E-01   4.000000E-01   4.000000E-01   4.000000E-01   4.000000E-01   4.000000E-01   4.000000E-01   4.000000E-01   4.000000E-01   4.000000E-01   4.000000E-01   4.000000E-01   4.000000E-01   4.000000E-01   4.000000E-01   4.000000E-01   4.000000E-01   4.000000E-01   4.000000E-01   4.000000E-01   4.000000E-01   4.000000E-01   4.000000E-01   4.000000E-01   4.000000E-01   4.000000E-01   4.000000E-01   4.000000E-01   4.000000E-01   4.000000E-01   4.000000E-01   4.000000E-01   4.000000E-01   4.000000E-01   4.000000E-01   4.000000E-01   4.000000E-01   4.000000E-01   4.000000E-01   4.000000E-01   4.000000E-01   4.000000E-01   4.000000E-01   4.000000E-01   4.000000E-01   4.000000E-01   4.000000E-01   4.000000E-01   4.000000E-01   4.000000E-01   4.000000E-01   4.000000E-01   4.000000E-01   4.000000E-01   4.000000E-01   4.000000E-01   4.000000E-01   4.000000E-01   4.000000E-01   4.000000E-01   4.000000E-01   4.000000E-01   4.000000E-01   4.000000E-01   4.000000E-01   4.000000E-01   4.000000E-01   4.000000E-01   4.000000E-01   4.000000E-01   4.000000E-01   4.000000E-01   4.000000E-01   4.000000E-01   4.000000E-01   4.000000E-01   4.000000E-01   4.000000E-01   4.000000E-01   4.000000E-01   4.000000E-01   4.000000E-01   4.000000E-01   4.000000E-01   4.000000E-01   4.000000E-01   4.000000E-01   4.000000E-01   4.000000E-01   4.000000E-01   4.000000E-01   4.000000E-01   4.000000E-01   4.000000E-01   4.000000E-01   4.000000E-01   4.000000E-01   4.000000E-01   4.000000E-01   4.000000E-01   4.000000E-01   4.000000E-01   4.000000E-01   4.000000E-01   4.000000E-01   4.000000E-01   4.000000E-01   4.000000E-01   4.000000E-01   4.000000E-01   4.000000E-01   4.000000E-01   4.000000E-01   4.000000E-01   4.000000E-01   4.000000E-01   4.000000E-01   4.000000E-01   4.000000E-01   4.000000E-01   4.000000E-01   4.000000E-01   4.000000E-01   4.000000E-01   4.000000E-01   4.000000E-01   4.000000E-01   4.000000E-01   4.000000E-01   4.000000E-01   4.000000E-01   4.000000E-01   4.000000E-01   4.000000E-01   4.000000E-01   4.000000E-01   4.000000E-01   4.000000E-01   4.000000E-01   4.000000E-01   4.000000E-01   4.000000E-01   4.000000E-01   4.000000E-01   4.000000E-01   4.000000E-01   4.000000E-01   4.000000E-01   4.000000E-01   4.000000E-01   4.000000E-01   4.000000E-01   4.000000E-01   4.000000E-01   4.000000E-01   4.000000E-01   4.000000E-01   4.000000E-01   4.000000E-01   4.000000E-01   4.000000E-01   4.000000E-01   4.000000E-01   4.000000E-01   4.000000E-01   4.000000E-01   4.000000E-01   4.000000E-01   4.000000E-01   4.000000E-01   4.000000E-01   4.000000E-01   4.000000E-01   4.000000E-01   4.000000E-01   4.000000E-01   4.000000E-01   4.000000E-01   4.000000E-01   4.000000E-01   4.000000E-01   4.000000E-01   4.000000E-01   4.000000E-01   4.000000E-01   4.000000E-01   4.000000E-01   4.000000E-01   4.000000E-01   4.000000E-01   4.000000E-01   4.000000E-01   4.000000E-01   4.000000E-01   4.000000E-01   4.000000E-01   4.000000E-01   4.000000E-01   4.000000E-01   4.000000E-01   4.000000E-01   4.000000E-01   4.000000E-01   4.000000E-01   4.000000E-01   4.000000E-01   4.000000E-01   4.000000E-01   4.000000E-01   4.000000E-01   4.000000E-01   4.000000E-01   4.000000E-01   4.000000E-01   4.000000E-01   4.000000E-01   4.000000E-01   4.000000E-01   4.000000E-01   4.000000E-01   4.000000E-01   4.000000E-01   4.000000E-01   4.000000E-01   4.000000E-01   4.000000E-01   4.000000E-01   4.000000E-01   4.000000E-01   4.000000E-01   4.000000E-01   4.000000E-01   4.000000E-01   4.000000E-01   4.000000E-01   4.000000E-01   4.000000E-01   4.000000E-01   4.000000E-01   4.000000E-01   4.000000E-01   4.000000E-01   4.000000E-01   4.000000E-01   4.000000E-01   4.000000E-01   4.000000E-01   4.000000E-01   4.000000E-01   4.000000E-01   4.000000E-01   4.000000E-01   4.000000E-01   4.000000E-01   4.000000E-01   4.000000E-01   4.000000E-01   4.000000E-01   4.000000E-01   4.000000E-01   4.000000E-01   4.000000E-01   4.000000E-01   4.000000E-01   4.000000E-01   4.000000E-01   4.000000E-01   4.000000E-01   4.000000E-01   4.000000E-01   4.000000E-01   4.000000E-01   4.000000E-01   4.000000E-01   4.000000E-01   4.000000E-01   4.000000E-01   4.000000E-01   4.000000E-01   4.000000E-01   4.000000E-01   4.000000E-01   4.000000E-01   4.000000E-01   4.000000E-01   4.000000E-01   4.000000E-01   4.000000E-01   4.000000E-01   4.000000E-01   4.000000E-01   4.000000E-01   4.000000E-01   4.000000E-01   4.000000E-01   4.000000E-01   4.000000E-01   4.000000E-01   4.000000E-01   4.000000E-01   4.000000E-01   4.000000E-01   4.000000E-01   4.000000E-01   4.000000E-01   4.000000E-01   4.000000E-01   4.000000E-01   4.000000E-01   4.000000E-01   4.000000E-01   4.000000E-01   4.000000E-01   4.000000E-01   4.000000E-01   4.000000E-01   4.000000E-01   4.000000E-01   4.000000E-01   4.000000E-01   4.000000E-01   4.000000E-01   4.000000E-01   4.000000E-01   4.000000E-01   4.000000E-01   4.000000E-01   4.000000E-01   4.000000E-01   4.000000E-01   4.000000E-01   4.000000E-01   4.000000E-01   4.000000E-01   4.000000E-01   4.000000E-01   4.000000E-01   4.000000E-01   4.000000E-01   4.000000E-01   4.000000E-01   4.000000E-01   4.000000E-01   4.000000E-01   4.000000E-01   4.000000E-01   4.000000E-01   4.000000E-01   4.000000E-01   4.000000E-01   4.000000E-01   4.000000E-01   4.000000E-01   4.000000E-01   4.000000E-01   4.000000E-01   4.000000E-01   4.000000E-01   4.000000E-01   4.000000E-01   4.000000E-01   4.000000E-01   4.000000E-01   4.000000E-01   4.000000E-01   4.000000E-01   4.000000E-01   4.000000E-01   4.000000E-01   4.000000E-01   4.000000E-01   4.000000E-01   4.000000E-01   4.000000E-01   4.000000E-01   4.000000E-01   4.000000E-01   4.000000E-01   4.000000E-01   4.000000E-01   4.000000E-01   4.000000E-01   4.000000E-01   4.000000E-01   4.000000E-01   4.000000E-01   4.000000E-01   4.000000E-01   4.000000E-01   4.000000E-01   4.000000E-01   4.000000E-01   4.000000E-01   4.000000E-01   4.000000E-01   4.000000E-01   4.000000E-01   4.000000E-01   4.000000E-01   4.000000E-01   4.000000E-01   4.000000E-01   4.000000E-01   4.000000E-01   4.000000E-01   4.000000E-01   4.000000E-01   4.000000E-01   4.000000E-01   4.000000E-01   4.000000E-01   4.000000E-01   4.000000E-01   4.000000E-01   4.000000E-01   4.000000E-01   4.000000E-01   4.000000E-01   4.000000E-01   4.000000E-01   4.000000E-01   4.000000E-01   4.000000E-01   4.000000E-01   4.000000E-01   4.000000E-01   4.000000E-01   4.000000E-01   4.000000E-01   4.000000E-01   4.000000E-01   4.000000E-01   4.000000E-01   4.000000E-01   4.000000E-01   4.000000E-01   4.000000E-01   4.000000E-01   4.000000E-01   4.000000E-01   4.000000E-01   4.000000E-01   4.000000E-01   4.000000E-01   4.000000E-01   4.000000E-01   4.000000E-01   4.000000E-01   4.000000E-01   4.000000E-01   4.000000E-01   4.000000E-01   4.000000E-01   4.000000E-01   4.000000E-01   4.000000E-01   4.000000E-01   4.000000E-01   4.000000E-01   4.000000E-01   4.000000E-01   4.000000E-01   4.000000E-01   4.000000E-01   4.000000E-01   4.000000E-01   4.000000E-01   4.000000E-01   4.000000E-01   4.000000E-01   4.000000E-01   4.000000E-01   4.000000E-01   4.000000E-01   4.000000E-01   4.000000E-01   4.000000E-01   4.000000E-01   4.000000E-01   4.000000E-01   4.000000E-01   4.000000E-01   4.000000E-01   4.000000E-01   4.000000E-01   4.000000E-01   4.000000E-01   4.000000E-01   4.000000E-01   4.000000E-01   4.000000E-01   4.000000E-01   4.000000E-01   4.000000E-01   4.000000E-01   4.000000E-01   4.000000E-01   4.000000E-01   4.000000E-01   4.000000E-01   4.000000E-01   4.000000E-01   4.000000E-01   4.000000E-01   4.000000E-01   4.000000E-01   4.000000E-01   4.000000E-01   4.000000E-01   4.000000E-01   4.000000E-01   4.000000E-01   4.000000E-01   4.000000E-01   4.000000E-01   4.000000E-01   4.000000E-01   4.000000E-01   4.000000E-01   4.000000E-01   4.000000E-01   4.000000E-01   4.000000E-01   4.000000E-01   4.000000E-01   4.000000E-01   4.000000E-01   4.000000E-01   4.000000E-01   4.000000E-01   4.000000E-01   4.000000E-01   4.000000E-01   4.000000E-01   4.000000E-01   4.000000E-01   4.000000E-01   4.000000E-01   4.000000E-01   4.000000E-01   4.000000E-01   4.000000E-01   4.000000E-01   4.000000E-01   4.000000E-01   4.000000E-01   4.000000E-01   4.000000E-01   4.000000E-01   4.000000E-01   4.000000E-01   4.000000E-01   4.000000E-01   4.000000E-01   4.000000E-01   4.000000E-01   4.000000E-01   4.000000E-01   4.000000E-01   4.000000E-01   4.000000E-01   4.000000E-01   4.000000E-01   4.000000E-01   4.000000E-01   4.000000E-01   4.000000E-01   4.000000E-01   4.000000E-01   4.000000E-01   4.000000E-01   4.000000E-01   4.000000E-01   4.000000E-01   4.000000E-01   4.000000E-01   4.000000E-01   4.000000E-01   4.000000E-01   4.000000E-01   4.000000E-01   4.000000E-01   4.000000E-01   4.000000E-01   4.000000E-01   4.000000E-01   4.000000E-01   4.000000E-01   4.000000E-01   4.000000E-01   4.000000E-01   4.000000E-01   4.000000E-01   4.000000E-01   4.000000E-01   4.000000E-01   4.000000E-01   4.000000E-01   4.000000E-01   4.000000E-01   4.000000E-01   4.000000E-01   4.000000E-01   4.000000E-01   4.000000E-01   4.000000E-01   4.000000E-01   4.000000E-01   4.000000E-01   4.000000E-01   4.000000E-01   4.000000E-01   4.000000E-01   4.000000E-01   4.000000E-01   4.000000E-01   4.000000E-01   4.000000E-01   4.000000E-01   4.000000E-01   4.000000E-01   4.000000E-01   4.000000E-01   4.000000E-01   4.000000E-01   4.000000E-01   4.000000E-01   4.000000E-01   4.000000E-01   4.000000E-01   4.000000E-01   4.000000E-01   4.000000E-01   4.000000E-01   4.000000E-01   4.000000E-01   4.000000E-01   4.000000E-01   4.000000E-01   4.000000E-01   4.000000E-01   4.000000E-01   4.000000E-01   4.000000E-01   4.000000E-01   4.000000E-01   4.000000E-01   4.000000E-01   4.000000E-01   4.000000E-01   4.000000E-01   4.000000E-01   4.000000E-01   4.000000E-01   4.000000E-01   4.000000E-01   4.000000E-01   4.000000E-01   4.000000E-01   4.000000E-01   4.000000E-01   4.000000E-01   4.000000E-01   4.000000E-01   4.000000E-01   4.000000E-01   4.000000E-01   4.000000E-01   4.000000E-01   4.000000E-01   4.000000E-01   4.000000E-01   4.000000E-01   4.000000E-01   4.000000E-01   4.000000E-01   4.000000E-01   4.000000E-01   4.000000E-01   4.000000E-01   4.000000E-01   4.000000E-01   4.000000E-01   4.000000E-01   4.000000E-01   4.000000E-01   4.000000E-01   4.000000E-01   4.000000E-01   4.000000E-01   4.000000E-01   4.000000E-01   4.000000E-01   4.000000E-01   4.000000E-01   4.000000E-01   4.000000E-01   4.000000E-01   4.000000E-01   4.000000E-01   4.000000E-01   4.000000E-01   4.000000E-01   4.000000E-01   4.000000E-01   4.000000E-01   4.000000E-01   4.000000E-01   4.000000E-01   4.000000E-01   4.000000E-01   4.000000E-01   4.000000E-01   4.000000E-01   4.000000E-01   4.000000E-01   4.000000E-01   4.000000E-01   4.000000E-01   4.000000E-01   4.000000E-01   4.000000E-01   4.000000E-01   4.000000E-01   4.000000E-01   4.000000E-01   4.000000E-01   4.000000E-01   4.000000E-01   4.000000E-01   4.000000E-01   4.000000E-01   4.000000E-01   4.000000E-01   4.000000E-01   4.000000E-01   4.000000E-01   4.000000E-01   4.000000E-01   4.000000E-01   4.000000E-01   4.000000E-01   4.000000E-01   4.000000E-01   4.000000E-01   4.000000E-01   4.000000E-01   4.000000E-01   4.000000E-01   4.000000E-01   4.000000E-01   4.000000E-01   4.000000E-01   