<?xml version="1.0"?>
<!-- Time =  3.5006976260279017E+00s -->
<VTKFile type="PolyData" version="0.1" byte_order="LittleEndian">
<PolyData>
<Piece NumberOfPoints="0000002400" NumberOfVerts="0" NumberOfLines="0" NumberOfStrips="0" NumberOfPolys="0">
<Points>
<DataArray type="Float32" Name="Position" NumberOfComponents="3" format="ascii">
  7.511664E+00   2.201981E-01   3.083908E+00   5.294729E+00   6.003148E-01   4.257477E+00   3.227861E+00   2.385247E-01   2.885878E+00   4.472820E+00   8.293455E+00   4.422579E+00   1.292548E+01   7.737638E-01   3.854060E+00   1.059623E+01   2.155596E+01   3.377456E+00   3.666168E+00   2.003171E-01   2.202377E+00   6.275473E+00   7.202360E+00   4.916125E+00   1.394815E+01   1.196276E+00   3.148481E-01   3.657219E+00   1.016891E+00   3.438641E+00   2.716150E+00   9.657311E-01   2.145752E+00   3.266724E+00   7.217298E+00   2.980945E+00   8.872193E-01   7.535933E-01   3.631104E+00   1.191149E+01   1.728767E+01   2.872982E-01   4.202427E+00   2.777349E-01   4.791052E+00   1.168098E+01   2.071892E+01   2.577800E+00   5.868593E+00   9.869350E+00   2.473719E+00   9.894851E+00   5.014791E-01   1.311065E+00   7.128873E+00   9.775983E+00   3.549721E+00   4.709383E+00   1.880508E+00   4.240725E+00   3.426177E+00   6.569919E-01   1.736978E+00   3.827461E+00   2.060629E-01   4.525985E+00   1.037111E+01   2.005739E+01   2.406505E+00   9.582251E+00   1.151214E+01   3.472436E+00   9.315587E-01   4.036422E+00   4.981046E+00   2.847963E+00   1.982718E-01   4.950000E+00   3.770381E+00   5.654171E+00   1.201035E+00   9.326624E+00   4.716762E+00   1.629244E+00   5.849753E+00   5.054680E-01   2.873824E+00   8.490989E+00   8.472817E+00   7.900976E-01   1.263807E+01   1.238024E+00   2.114327E+00   1.176285E+01   6.381791E-01   9.855436E-01   1.774364E+00   6.080351E-01   3.861432E+00   3.377453E+00   9.018046E+00   3.054515E+00   9.052711E-01   8.344637E-01   1.333472E+00   1.035303E+01   2.391639E-01   1.214407E+00   5.751169E+00   1.152813E+01   4.452048E+00   2.222220E+00   6.089503E-01   1.933174E+00   5.243295E+00   5.472429E-01   5.700948E-01   1.427406E+01   1.249923E+01   1.907861E+00   7.225836E+00   1.612156E+01   3.625669E+00   5.759555E+00   2.137027E-01   2.584373E+00   2.391365E+00   2.307563E-01   3.137445E+00   3.105004E+00   1.682481E+01   2.124466E+00   1.421836E+01   1.552107E+01   4.999415E+00   4.032431E+00   2.618664E-01   2.661152E+00   3.167110E+00   2.441699E-01   4.408296E+00   7.091526E+00   6.242858E+00   3.464648E+00   6.149413E+00   2.030486E-01   1.402441E+00   2.366163E+00   1.585616E+01   3.963897E+00   8.124584E+00   1.845582E+01   4.168178E+00   1.074514E+01   5.950291E+00   8.493103E-01   5.423804E+00   6.559193E+00   4.485645E+00   7.985368E+00   3.378883E+00   3.194292E-01   1.205101E+01   3.383806E+00   3.214474E+00   9.844542E+00   1.137366E+00   3.440464E-01   7.560738E+00   2.029423E+00   3.669954E+00   7.695928E+00   8.628767E+00   3.740319E+00   1.300365E+01   8.362787E-01   1.666989E+00   7.835182E+00   9.182397E+00   3.127065E+00   6.424592E+00   5.740023E-01   1.349638E+00   5.270771E+00   2.049136E-01   2.174245E-01   2.217044E-01   1.951099E-01   4.746364E+00   1.443684E+01   2.579749E+00   1.795347E+00   8.545073E+00   6.227447E-01   1.301700E+00   4.856416E+00   8.508041E+00   4.473682E+00   6.124042E+00   3.421227E+00   3.883970E+00   2.853581E+00   2.230454E-01   5.958373E-01   2.462681E+00   6.271292E-01   3.209776E+00   1.260407E+01   3.626616E-01   2.650468E+00   1.052835E+01   1.578877E+00   3.409308E+00   1.412213E+01   1.988708E+01   1.112320E+00   8.377143E+00   1.026244E+00   9.663383E-01   4.288291E+00   1.997507E-01   5.395517E-01   4.472943E+00   8.204622E-01   3.663133E+00   3.359536E+00   1.194456E+01   4.031623E+00   1.947225E+00   5.727870E-01   4.716683E-01   2.693044E+00   5.980424E+00   3.318429E+00   3.461085E+00   4.932559E-01   8.846166E-01   7.585410E+00   2.257202E+00   4.294737E+00   4.289427E+00   5.794902E-01   3.059680E+00   1.291297E+01   1.120949E+01   4.487505E+00   7.335614E+00   1.621310E+00   4.029809E+00   1.023364E+01   7.022026E-01   4.863020E+00   4.007094E+00   2.224590E-01   4.167185E+00   6.895956E+00   1.793745E+00   2.928233E+00   5.070084E+00   1.996456E-01   2.924193E+00   5.920030E+00   5.826688E-01   1.986910E+00   1.996271E-01   2.551592E-01   1.994936E-01   5.352050E+00   2.313495E+00   3.822580E+00   5.053306E+00   3.528147E-01   4.622227E+00   7.119223E+00   1.132353E+00   3.014415E+00   6.520380E+00   1.146699E+00   9.657941E-01   2.497292E+00   3.924131E-01   1.600329E+00   6.996293E+00   6.544138E-01   1.406960E+00   7.783814E+00   8.313025E+00   3.966333E+00   6.117670E+00   5.541962E-01   2.431692E+00   5.262974E+00   1.912271E+01   3.798445E+00   6.496385E+00   1.852415E+00   2.943597E+00   2.035116E-01   5.737732E-01   4.909735E+00   5.854344E+00   8.272787E+00   2.858693E+00   6.069630E+00   2.017643E-01   3.696175E+00   3.737051E+00   1.255896E+01   2.552685E+00   8.441707E+00   2.064794E+01   4.686220E+00   9.642931E+00   2.454949E+00   6.221606E-01   3.652122E+00   2.007133E-01   6.717100E-01   5.991134E+00   5.166429E-01   3.467354E+00   7.431393E+00   1.130557E+01   2.039032E+00   7.065757E+00   1.396438E+00   6.959082E-01   1.259764E+01   9.999027E+00   1.135152E+00   2.965754E+00   1.413908E+01   4.786797E+00   1.334883E+01   1.129245E+01   9.989555E-01   3.542516E+00   5.428712E-01   4.611488E-01   1.280906E+01   2.490377E+00   7.809561E-01   7.554663E-01   1.190290E+00   3.494727E+00   4.680080E+00   6.703113E-01   2.145953E+00   6.232672E+00   4.517547E-01   1.775481E+00   4.600370E+00   2.044561E-01   1.415877E+00   4.982564E+00   5.514149E-01   3.449303E+00   3.014498E+00   2.118025E-01   1.050285E+00   6.770166E+00   1.250495E+00   3.766384E+00   6.682802E+00   5.175851E+00   1.904202E+00   7.440494E+00   9.351399E-01   1.828212E+00   1.080245E+01   2.561932E-01   4.720400E+00   6.675538E+00   2.287033E+00   4.205945E+00   2.770589E+00   2.139750E-01   2.870939E+00   7.096370E+00   8.585800E+00   1.584914E+00   4.057959E+00   2.138741E+01   2.163100E+00   6.697470E+00   2.255879E+00   3.805579E+00   1.464044E+01   6.563439E-01   4.860114E+00   6.302879E+00   3.771615E+00   4.849817E+00   9.354925E-01   2.015324E-01   3.781657E+00   9.600059E+00   1.455637E+01   2.401388E+00   9.316336E+00   1.092944E+01   2.856458E+00   2.675066E+00   5.399576E-01   2.105573E+00   1.165452E+01   7.628230E-01   4.799756E-01   6.160926E+00   3.733914E+00   1.366888E+00   7.749682E+00   8.445433E-01   2.343484E+00   4.475050E+00   1.017072E+01   3.272202E-01   4.588533E+00   1.294971E+00   4.225622E+00   7.392428E+00   1.448246E+01   4.494840E+00   4.073262E+00   1.674462E+01   3.901301E+00   4.013536E+00   2.002254E-01   1.863629E+00   5.731801E+00   1.234259E+01   2.287370E-01   5.895964E+00   2.279609E+00   3.161278E+00   1.426239E+01   2.676008E-01   4.534859E+00   7.125325E+00   1.603673E+01   1.263272E+00   1.462820E+01   2.610239E-01   2.613844E+00   2.804559E+00   2.616733E-01   4.164007E+00   1.557637E+00   2.660844E-01   4.556617E+00   5.853392E+00   5.261008E+00   4.443107E+00   7.615930E+00   1.101875E+01   1.154699E+00   1.202053E+01   2.974116E+00   2.717251E+00   3.042758E+00   1.104153E+01   4.092422E+00   1.157872E+01   6.322776E+00   2.014887E+00   1.271814E+01   2.051162E-01   3.763838E+00   3.783959E+00   4.579963E+00   1.795892E+00   7.678669E+00   1.737762E+00   4.020586E-01   9.534522E-01   1.365943E+01   5.077150E-01   6.058511E+00   2.800756E+00   4.825835E+00   1.990395E+00   2.061963E+01   4.861232E+00   1.101812E+01   1.465637E+00   3.162392E+00   6.537344E+00   2.562536E-01   3.014003E+00   8.706420E+00   7.679316E-01   1.969080E+00   1.479183E+01   7.032956E-01   2.366963E+00   5.242459E+00   1.189839E+01   4.695703E+00   1.337905E+00   2.400829E-01   2.222315E-01   6.714533E+00   2.050730E-01   2.604755E-01   1.953021E-01   5.567319E+00   5.257412E-01   7.933149E-01   2.328383E-01   2.501989E-01   8.048697E+00   2.981534E+00   2.001153E+00   1.077842E+01   1.301394E+01   4.999646E+00   8.850381E+00   1.751628E+01   2.702797E+00   6.781705E+00   4.250149E+00   2.653229E+00   3.075251E+00   5.521916E-01   4.806725E+00   6.454532E+00   1.109463E+01   4.548561E+00   3.761571E+00   1.459644E+01   2.074654E+00   3.122865E+00   2.587504E-01   1.993458E+00   3.414849E+00   2.128096E-01   1.180486E+00   4.930241E+00   2.745068E+00   3.338147E+00   3.262608E+00   5.031700E-01   3.194366E+00   6.104609E+00   2.204590E+01   3.558525E+00   4.972125E+00   1.068720E+01   4.916005E+00   2.927725E+00   1.007154E+00   8.575184E-01   4.537401E+00   2.021784E-01   2.123850E-01   6.729701E+00   5.822802E+00   2.569324E+00   9.531637E+00   2.043190E-01   4.358335E+00   3.042692E+00   4.074604E+00   1.504933E+00   7.844791E+00   1.523000E+01   3.273195E+00   2.147671E+00   1.112035E+00   1.596599E+00   1.123641E+01   8.414904E+00   9.427388E-01   2.189426E-01   2.088364E-01   4.340414E+00   9.171497E+00   3.453262E-01   3.024079E+00   1.359539E+01   1.681536E+01   1.325712E+00   5.425603E+00   1.181329E+00   2.602168E+00   5.117290E+00   2.271684E+00   3.746059E-01   1.355931E+01   3.311182E+00   2.284720E+00   3.761348E+00   8.049532E-01   7.071393E-01   7.010626E+00   1.254912E+01   4.635379E-01   1.074980E+01   1.978615E+01   4.363371E+00   3.492845E+00   1.943827E+01   3.174320E+00   1.991634E+00   2.154113E-01   2.556525E+00   5.735664E+00   1.641168E+00   2.533806E+00   8.832483E+00   1.508576E+01   1.522493E+00   9.279234E+00   5.811053E-01   1.559997E+00   5.873860E+00   7.706714E-01   4.174189E+00   6.630362E-01   1.150626E+01   3.843912E+00   4.712656E+00   1.036894E+00   4.978465E+00   2.856055E+00   1.120146E+01   3.108386E+00   1.129129E+01   5.822718E-01   5.716525E-01   9.136201E+00   4.581472E-01   2.161455E+00   6.184752E+00   1.999159E-01   3.316367E+00   3.217272E+00   1.162186E+00   2.365208E+00   6.681219E+00   3.627322E+00   2.819874E+00   7.115491E+00   1.142590E+00  
[...]
<PointData Scalars="Diameter" Vectors="Velocity">
<DataArray type="Float32" Name="Diameter" format="ascii">
  4.000000E-01   4.000000E-01   4.000000E-01   4.000000E-01   4.000000E-01   4.000000E-01   4.000000E-01   4.000000E-01   4.000000E-01   4.000000E-01   4.000000E-01   4.000000E-01   4.000000E-01   4.000000E-01   4.000000E-01   4.000000E-01   4.000000E-01   4.000000E-01   4.000000E-01   4.000000E-01   4.000000E-01   4.000000E-01   4.000000E-01   4.000000E-01   4.000000E-01   4.000000E-01   4.000000E-01   4.000000E-01   4.000000E-01   4.000000E-01   4.000000E-01   4.000000E-01   4.000000E-01   4.000000E-01   4.000000E-01   4.000000E-01   4.000000E-01   4.000000E-01   4.000000E-01   4.000000E-01   4.000000E-01   4.000000E-01   4.000000E-01   4.000000E-01   4.000000E-01   4.000000E-01   4.000000E-01   4.000000E-01   4.000000E-01   4.000000E-01   4.000000E-01   4.000000E-01   4.000000E-01   4.000000E-01   4.000000E-01   4.000000E-01   4.000000E-01   4.000000E-01   4.000000E-01   4.000000E-01   4.000000E-01   4.000000E-01   4.000000E-01   4.000000E-01   4.000000E-01   4.000000E-01   4.000000E-01   4.000000E-01   4.000000E-01   4.000000E-01   4.000000E-01   4.000000E-01   4.000000E-01   4.000000E-01   4.000000E-01   4.000000E-01   4.000000E-01   4.000000E-01   4.000000E-01   4.000000E-01   4.000000E-01   4.000000E-01   4.000000E-01   4.000000E-01   4.000000E-01   4.000000E-01   4.000000E-01   4.000000E-01   4.000000E-01   4.000000E-01   4.000000E-01   4.000000E-01   4.000000E-01   4.000000E-01   4.000000E-01   4.000000E-01   4.000000E-01   4.000000E-01   4.000000E-01   4.000000E-01   4.000000E-01   4.000000E-01   4.000000E-01   4.000000E-01   4.000000E-01   4.000000E-01   4.000000E-01   4.000000E-01   4.000000E-01   4.000000E-01   4.000000E-01   4.000000E-01   4.000000E-01   4.000000E-01   4.000000E-01   4.000000E-01   4.000000E-01   4.000000E-01   4.000000E-01   4.000000E-01   4.000000E-01   4.000000E-01   4.000000E-01   4.000000E-01   4.000000E-01   4.000000E-01   4.000000E-01   4.000000E-01   4.000000E-01   4.000000E-01   4.000000E-01   4.000000E-01   4.000000E-01   4.000000E-01   4.000000E-01   4.000000E-01   4.000000E-01   4.000000E-01   4.000000E-01   4.000000E-01   4.000000E-01   4.000000E-01   4.000000E-01   4.000000E-01   4.000000E-01   4.000000E-01   4.000000E-01   4.000000E-01   4.000000E-01   4.000000E-01   4.000000E-01   4.000000E-01   4.000000E-01   4.000000E-01   4.000000E-01   4.000000E-01   4.000000E-01   4.000000E-01   4.000000E-01   4.000000E-01   4.000000E-01   4.000000E-01   4.000000E-01   4.000000E-01   4.000000E-01   4.000000E-01   4.000000E-01   4.000000E-01   4.000000E-01   4.000000E-01   4.000000E-01   4.000000E-01   4.000000E-01   4.000000E-01   4.000000E-01   4.000000E-01   4.000000E-01   4.000000E-01   4.000000E-01   4.000000E-01   4.000000E-01   4.000000E-01   4.000000E-01   4.000000E-01   4.000000E-01   4.000000E-01   4.000000E-01   4.000000E-01   4.000000E-01   4.000000E-01   4.000000E-01   4.000000E-01   4.000000E-01   4.000000E-01   4.000000E-01   4.000000E-01   4.000000E-01   4.000000E-01   4.000000E-01   4.000000E-01   4.000000E-01   4.000000E-01   4.000000E-01   4.000000E-01   4.000000E-01   4.000000E-01   4.000000E-01   4.000000E-01   4.000000E-01   4.000000E-01   4.000000E-01   4.000000E-01   4.000000E-01   4.000000E-01   4.000000E-01   4.000000E-01   4.000000E-01   4.000000E-01   4.000000E-01   4.000000E-01   4.000000E-01   4.000000E-01   4.000000E-01   4.000000E-01   4.000000E-01   4.000000E-01   4.000000E-01   4.000000E-01   4.000000E-01   4.000000E-01   4.000000E-01   4.000000E-01   4.000000E-01   4.000000E-01   4.000000E-01   4.000000E-01   4.000000E-01   4.000000E-01   4.000000E-01   4.000000E-01   4.000000E-01   4.000000E-01   4.000000E-01   4.000000E-01   4.000000E-01   4.000000E-01   4.000000E-01   4.000000E-01   4.000000E-01   4.000000E-01   4.000000E-01   4.000000E-01   4.000000E-01   4.000000E-01   4.000000E-01   4.000000E-01   4.000000E-01   4.000000E-01   4.000000E-01   4.000000E-01   4.000000E-01   4.000000E-01   4.000000E-01   4.000000E-01   4.000000E-01   4.000000E-01   4.000000E-01   4.000000E-01   4.000000E-01   4.000000E-01   4.000000E-01   4.000000E-01   4.000000E-01   4.000000E-01   4.000000E-01   4.000000E-01   4.000000E-01   4.000000E-01   4.000000E-01   4.000000E-01   4.000000E-01   4.000000E-01   4.000000E-01   4.000000E-01   4.000000E-01   4.000000E-01   4.000000E-01   4.000000E-01   4.000000E-01   4.000000E-01   4.000000E-01   4.000000E-01   4.000000E-01   4.000000E-01   4.000000E-01   4.000000E-01   4.000000E-01   4.000000E-01   4.000000E-01   4.000000E-01   4.000000E-01   4.000000E-01   4.000000E-01   4.000000E-01   4.000000E-01   4.000000E-01   4.000000E-01   4.000000E-01   4.000000E-01   4.000000E-01   4.000000E-01   4.000000E-01   4.000000E-01   4.000000E-01   4.000000E-01   4.000000E-01   4.000000E-01   4.000000E-01   4.000000E-01   4.000000E-01   4.000000E-01   4.000000E-01   4.000000E-01   4.000000E-01   4.000000E-01   4.000000E-01   4.000000E-01   4.000000E-01   4.000000E-01   4.000000E-01   4.000000E-01   4.000000E-01   4.000000E-01   4.000000E-01   4.000000E-01   4.000000E-01   4.000000E-01   4.000000E-01   4.000000E-01   4.000000E-01   4.000000E-01   4.000000E-01   4.000000E-01   4.000000E-01   4.000000E-01   4.000000E-01   4.000000E-01   4.000000E-01   4.000000E-01   4.000000E-01   4.000000E-01   4.000000E-01   4.000000E-01   4.000000E-01   4.000000E-01   4.000000E-01   4.000000E-01   4.000000E-01   4.000000E-01   4.000000E-01   4.000000E-01   4.000000E-01   4.000000E-01   4.000000E-01   4.000000E-01   4.000000E-01   4.000000E-01   4.000000E-01   4.000000E-01   4.000000E-01   4.000000E-01   4.000000E-01   4.000000E-01   4.000000E-01   4.000000E-01   4.000000E-01   4.000000E-01   4.000000E-01   4.000000E-01   4.000000E-01   4.000000E-01   4.000000E-01   4.000000E-01   4.000000E-01   4.000000E-01   4.000000E-01   4.000000E-01   4.000000E-01   4.000000E-01   4.000000E-01   4.000000E-01   4.000000E-01   4.000000E-01   4.000000E-01   4.000000E-01   4.000000E-01   4.000000E-01   4.000000E-01   4.000000E-01   4.000000E-01   4.000000E-01   4.000000E-01   4.000000E-01   4.000000E-01   4.000000E-01   4.000000E-01   4.000000E-01   4.000000E-01   4.000000E-01   4.000000E-01   4.000000E-01   4.000000E-01   4.000000E-01   4.000000E-01   4.000000E-01   4.000000E-01   4.000000E-01   4.000000E-01   4.000000E-01   4.000000E-01   4.000000E-01   4.000000E-01   4.000000E-01   4.000000E-01   4.000000E-01   4.000000E-01   4.000000E-01   4.000000E-01   4.000000E-01   4.000000E-01   4.000000E-01   4.000000E-01   4.000000E-01   4.000000E-01   4.000000E-01   4.000000E-01   4.000000E-01   4.000000E-01   4.000000E-01   4.000000E-01   4.000000E-01   4.000000E-01   4.000000E-01   4.000000E-01   4.000000E-01   4.000000E-01   4.000000E-01   4.000000E-01   4.000000E-01   4.000000E-01   4.000000E-01   4.000000E-01   4.000000E-01   4.000000E-01   4.000000E-01   4.000000E-01   4.000000E-01   4.000000E-01   4.000000E-01   4.000000E-01   4.000000E-01   4.000000E-01   4.000000E-01   4.000000E-01   4.000000E-01   4.000000E-01   4.000000E-01   4.000000E-01   4.000000E-01   4.000000E-01   4.000000E-01   4.000000E-01   4.000000E-01   4.000000E-01   4.000000E-01   4.000000E-01   4.000000E-01   4.000000E-01   4.000000E-01   4.000000E-01   4.000000E-01   4.000000E-01   4.000000E-01   4.000000E-01   4.000000E-01   4.000000E-01   4.000000E-01   4.000000E-01   4.000000E-01   4.000000E-01   4.000000E-01   4.000000E-01   4.000000E-01   4.000000E-01   4.000000E-01   4.000000E-01   4.000000E-01   4.000000E-01   4.000000E-01   4.000000E-01   4.000000E-01   4.000000E-01   4.000000E-01   4.000000E-01   4.000000E-01   4.000000E-01   4.000000E-01   4.000000E-01   4.000000E-01   4.000000E-01   4.000000E-01   4.000000E-01   4.000000E-01   4.000000E-01   4.000000E-01   4.000000E-01   4.000000E-01   4.000000E-01   4.000000E-01   4.000000E-01   4.000000E-01   4.000000E-01   4.000000E-01   4.000000E-01   4.000000E-01   4.000000E-01   4.000000E-01   4.000000E-01   4.000000E-01   4.000000E-01   4.000000E-01   4.000000E-01   4.000000E-01   4.000000E-01   4.000000E-01   4.000000E-01   4.000000E-01   4.000000E-01   4.000000E-01   4.000000E-01   4.000000E-01   4.000000E-01   4.000000E-01   4.000000E-01   4.000000E-01   4.000000E-01   4.000000E-01   4.000000E-01   4.000000E-01   4.000000E-01   4.000000E-01   4.000000E-01   4.000000E-01   4.000000E-01   4.000000E-01   4.000000E-01   4.000000E-01   4.000000E-01   4.000000E-01   4.000000E-01   4.000000E-01   4.000000E-01   4.000000E-01   4.000000E-01   4.000000E-01   4.000000E-01   4.000000E-01   4.000000E-01   4.000000E-01   4.000000E-01   4.000000E-01   4.000000E-01   4.000000E-01   4.000000E-01   4.000000E-01   4.000000E-01   4.000000E-01   4.000000E-01   4.000000E-01   4.000000E-01   4.000000E-01   4.000000E-01   4.000000E-01   4.000000E-01   4.000000E-01   4.000000E-01   4.000000E-01   4.000000E-01   4.000000E-01   4.000000E-01   4.000000E-01   4.000000E-01   4.000000E-01   4.000000E-01   4.000000E-01   4.000000E-01   4.000000E-01   4.000000E-01   4.000000E-01   4.000000E-01   4.000000E-01   4.000000E-01   4.000000E-01   4.000000E-01   4.000000E-01   4.000000E-01   4.000000E-01   4.000000E-01   4.000000E-01   4.000000E-01   4.000000E-01   4.000000E-01   4.000000E-01   4.000000E-01   4.000000E-01   4.000000E-01   4.000000E-01   4.000000E-01   4.000000E-01   4.000000E-01   4.000000E-01   4.000000E-01   4.000000E-01   4.000000E-01   4.000000E-01   4.000000E-01   4.000000E-01   4.000000E-01   4.000000E-01   4.000000E-01   4.000000E-01   4.000000E-01   4.000000E-01   4.000000E-01   4.000000E-01   4.000000E-01   4.000000E-01   4.000000E-01   4.000000E-01   4.000000E-01   4.000000E-01   4.000000E-01   4.000000E-01   4.000000E-01   4.000000E-01   4.000000E-01   4.000000E-01   4.000000E-01   4.000000E-01   4.000000E-01   4.000000E-01   4.000000E-01   4.000000E-01   4.000000E-01   4.000000E-01   4.000000E-01   4.000000E-01   4.000000E-01   4.000000E-01   4.000000E-01   4.000000E-01   4.000000E-01   4.000000E-01   4.000000E-01   4.000000E-01   4.000000E-01   4.000000E-01   4.000000E-01   4.000000E-01   4.000000E-01   4.000000E-01   4.000000E-01   4.000000E-01   4.000000E-01   4.000000E-01   4.000000E-01   4.000000E-01   4.000000E-01   4.000000E-01   4.000000E-01   4.000000E-01   4.000000E-01   4.000000E-01   4.000000E-01   4.000000E-01   4.000000E-01   4.000000E-01   4.000000E-01   4.000000E-01   4.000000E-01   4.000000E-01   4.000000E-01   4.000000E-01   4.000000E-01   4.000000E-01   4.000000E-01   4.000000E-01   4.000000E-01   4.000000E-01   4.000000E-01   4.000000E-01   4.000000E-01   4.000000E-01   4.000000E-01   4.000000E-01   4.000000E-01   4.000000E-01   4.000000E-01   4.000000E-01   4.000000E-01   4.000000E-01   4.000000E-01   4.000000E-01   4.000000E-01   4.000000E-01   4.000000E-01   4.000000E-01   4.000000E-01   4.000000E-01   4.000000E-01   4.000000E-01   4.000000E-01   4.000000E-01   4.000000E-01   4.000000E-01   4.000000E-01   4.000000E-01   4.000000E-01   4.000000E-01   4.000000E-01   4.000000E-01   4.000000E-01   4.000000E-01   4.000000E-01   4.000000E-01   4.000000E-01   4.000000E-01   4.000000E-01   4.000000E-01   4.000000E-01   4.000000E-01   4.000000E-01   4.000000E-01   4.000000E-01   4.000000E-01   4.000000E-01   4.000000E-01   4.000000E-01   4.000000E-01   4.000000E-01   4.000000E-01   4.000000E-01   4.000000E-01   4.000000E-01   4.000000E-01   4.000000E-01   4.000000E-01   4.000000E-01   4.000000E-01   4.000000E-01   4.000000E-01   4.000000E-01   4.000000E-01   4.000000E-01   4.000000E-01   4.000000E-01   4.000000E-01   4.000000E-01   4.000000E-01   4.000000E-01   4.000000E-01   4.000000E-01   4.000000E-01   4.000000E-01   4.000000E-01   4.000000E-01   4.000000E-01   4.000000E-01   4.000000E-01   4.000000E-01   4.000000E-01   4.000000E-01   4.000000E-01   4.000000E-01   4.000000E-01   4.000000E-01   4.000000E-01   4.000000E-01   4.000000E-01   4.000000E-01   4.000000E-01   4.000000E-01   4.000000E-01   4.000000E-01   4.000000E-01   4.000000E-01   4.000000E-01   4.000000E-01   4.000000E-01   4.000000E-01   4.000000E-01   4.000000E-01   4.000000E-01   4.000000E-01   4.000000E-01   4.000000E-01   4.000000E-01   4.000000E-01   4.000000E-01   4.000000E-01   4.000000E-01   4.000000E-01   4.000000E-01   4.000000E-01   4.000000E-01   4.000000E-01   4.000000E-01   4.000000E-01   4.000000E-01   4.000000E-01   4.000000E-01   4.000000E-01   4.000000E-01   4.000000E-01   4.000000E-01   4.000000E-01   4.000000E-01   4.000000E-01   4.000000E-01   4.000000E-01   4.000000E-01   4.000000E-01   4.000000E-01   4.000000E-01   4.000000E-01   4.000000E-01   4.000000E-01   4.000000E-01   4.000000E-01   4.000000E-01   4.000000E-01   4.000000E-01   4.000000E-01   4.000000E-01   4.000000E-01   4.000000E-01   4.000000E-01   4.000000E-01   4.000000E-01   4.000000E-01   4.000000E-01   4.000000E-01   4.000000E-01   4.000000E-01   4.000000E-01   4.000000E-01   4.000000E-01   4.000000E-01   4.000000E-01   4.000000E-01   4.000000E-01   4.000000E-01   4.000000E-01   4.000000E-01   4.000000E-01   4.000000E-01   4.000000E-01   4.000000E-01   4.000000E-01   4.000000E-01   4.000000E-01   4.000000E-01   4.000000E-01   4.000000E-01   4.000000E-01   4.000000E-01   4.000000E-01   4.000000E-01   4.000000E-01   4.000000E-01   4.000000E-01   4.000000E-01   4.000000E-01   4.000000E-01   4.000000E-01   4.000000E-01   4.000000E-01   4.000000E-01   4.000000E-01   4.000000E-01   4.000000E-01   4.000000E-01   4.000000E-01   4.000000E-01   4.000000E-01   4.000000E-01   4.000000E-01   4.000000E-01   4.000000E-01   4.000000E-01   4.000000E-01   4.000000E-01   4.000000E-01   4.000000E-01   4.000000E-01   4.000000E-01   4.000000E-01   4.000000E-01   4.000000E-01   4.000000E-01   4.000000E-01   4.000000E-01   4.000000E-01   4.000000E-01   4.000000E-01   4.000000E-01   4.000000E-01   4.000000E-01   4.000000E-01   4.000000E-01   4.000000E-01   4.000000E-01   4.000000E-01   4.000000E-01   4.000000E-01   4.000000E-01   4.000000E-01   4.000000E-01   4.000000E-01   4.000000E-01   4.000000E-01   4.000000E-01   4.000000E-01   4.000000E-01   4.000000E-01   4.000000E-01   4.000000E-01   4.000000E-01   4.000000E-01   4.000000E-01   4.000000E-01   4.000000E-01   4.000000E-01   4.000000E-01   4.000000E-01   4.000000E-01   4.000000E-01   4.000000E-01   4.000000E-01   4.000000E-01   4.000000E-01   4.000000E-01   4.000000E-01   4.000000E-01   4.000000E-01   4.000000E-01   4.000000E-01   4.000000E-01   4.000000E-01   4.000000E-01   4.000000E-01   4.000000E-01   4.000000E-01   4.000000E-01   4.000000E-01   4.000000E-01   4.000000E-01   4.000000E-01   4.000000E-01   4.000000E-01   4.000000E-01   4.000000E-01   4.000000E-01   4.000000E-01   4.000000E-01   4.000000E-01   4.000000E-01   4.000000E-01   4.000000E-01   4.000000E-01   4.000000E-01   4.000000E-01   4.000000E-01   4.000000E-01   4.000000E-01   4.000000E-01   4.000000E-01   4.000000E-01   4.000000E-01   4.000000E-01   4.000000E-01   4.000000E-01   4.000000E-01   4.000000E-01   4.000000E-01   4.000000E-01   4.000000E-01   4.000000E-01   4.000000E-01   4.000000E-01   4.000000E-01   4.000000E-01   4.000000E-01   4.000000E-01   4.000000E-01   4.000000E-01   4.000000E-01   4.000000E-01   4.000000E-01   4.000000E-01   4.000000E-01   4.000000E-01   4.000000E-01   4.000000E-01   4.000000E-01   4.000000E-01   4.000000E-01   4.000000E-01   4.000000E-01   4.000000E-01   4.000000E-01   4.000000E-01   4.000000E-01   4.000000E-01   4.000000E-01   4.000000E-01   4.000000E-01   4.000000E-01   4.000000E-01   4.000000E-01   4.000000E-01   4.000000E-01   4.000000E-01   4.000000E-01   4.000000E-01   4.000000E-01   4.000000E-01   4.000000E-01   4.000000E-01   4.000000E-01   4.000000E-01   4.000000E-01   4.000000E-01   4.000000E-01   4.000000E-01   4.000000E-01   4.000000E-01   4.000000E-01   4.000000E-01   4.000000E-01   4.000000E-01   4.000000E-01   4.000000E-01   4.000000E-01   4.000000E-01   4.000000E-01   4.000000E-01   4.000000E-01   4.000000E-01   4.000000E-01   4.000000E-01   4.000000E-01   4.000000E-01   4.000000E-01   4.000000E-01   4.000000E-01   4.000000E-01   4.000000E-01   4.000000E-01   4.000000E-01   4.000000E-01   4.000000E-01   4.000000E-01   4.000000E-01   4.000000E-01   4.000000E-01   4.000000E-01   4.000000E-01   4.000000E-01   4.000000E-01   4.000000E-01   4.000000E-01   4.000000E-01   4.000000E-01   4.000000E-01   4.000000E-01   4.000000E-01   4.000000E-01   4.000000E-01   4.000000E-01   4.000000E-01   4.000000E-01   4.000000E-01   4.000000E-01   4.000000E-01   4.000000E-01   4.000000E-01   4.000000E-01   4.000000E-01   4.000000E-01   4.000000E-01   4.000000E-01   4.000000E-01   4.000000E-01   4.000000E-01   4.000000E-01   4.000000E-01   4.000000E-01   4.000000E-01   4.000000E-01   4.000000E-01   4.000000E-01   4.000000E-01   4.000000E-01   4.000000E-01   4.000000E-01   4.000000E-01   4.000000E-01   4.000000E-01   4.000000E-01   4.000000E-01   4.000000E-01   4.000000E-01   4.000000E-01   4.000000E-01   4.000000E-01   4.000000E-01   4.000000E-01   4.000000E-01   4.000000E-01   4.000000E-01   4.000000E-01   4.000000E-01   4.000000E-01   4.000000E-01   4.000000E-01   4.000000E-01   4.000000E-01   4.000000E-01   4.000000E-01   4.000000E-01   4.000000E-01   4.000000E-01   4.000000E-01   4.000000E-01   4.000000E-01   4.000000E-01   4.000000E-01   4.000000E-01   4.000000E-01   4.000000E-01   4.000000E-01   4.000000E-01   4.000000E-01   4.000000E-01   4.000000E-01   4.000000E-01   4.000000E-01   4.000000E-01   4.000000E-01   4.000000E-01   4.000000E-01   4.000000E-01   4.000000E-01   4.000000E-01   4.000000E-01   4.000000E-01   4.000000E-01   4.000000E-01   4.000000E-01   4.000000E-01   4.000000E-01   4.000000E-01   4.000000E-01   4.000000E-01   4.000000E-01   4.000000E-01   4.000000E-01   4.000000E-01   4.000000E-01   4.000000E-01   4.000000E-01   4.000000E-01   4.000000E-01   4.000000E-01   4.000000E-01   4.000000E-01   4.000000E-01   4.000000E-01   4.000000E-01   4.000000E-01   4.000000E-01   4.000000E-01   4.000000E-01   4.000000E-01   4.000000E-01   4.000000E-01   4.000000E-01   4.000000E-01   4.000000E-01   4.000000E-01   4.000000E-01   4.000000E-01   4.000000E-01   4.000000E-01   4.000000E-01   4.000000E-01   4.000000E-01   4.000000E-01   4.000000E-01   4.000000E-01   4.000000E-01   4.000000E-01   4.000000E-01   4.000000E-01   4.000000E-01   4.000000E-01   4.000000E-01   4.000000E-01   4.000000E-01   4.000000E-01   4.000000E-01   4.000000E-01   4.000000E-01   4.000000E-01   4.000000E-01   4.000000E-01   4.000000E-01   4.000000E-01   4.000000E-01   4.000000E-01   4.000000E-01   4.000000E-01   4.000000E-01   4.000000E-01   4.000000E-01   4.000000E-01   4.000000E-01   4.000000E-01   4.000000E-01   4.000000E-01   4.000000E-01   4.000000E-01   4.000000E-01   4.000000E-01   4.000000E-01   4.000000E-01   4.000000E-01   4.000000E-01   4.000000E-01   4.000000E-01   4.000000E-01   4.000000E-01   4.000000E-01   4.000000E-01   4.000000E-01   4.000000E-01   4.000000E-01   4.000000E-01   4.000000E-01   4.000000E-01   4.000000E-01   4.000000E-01   4.000000E-01   4.000000E-01   4.000000E-01   4.000000E-01   4.000000E-01   4.000000E-01   4.000000E-01   4.000000E-01   4.000000E-01   4.000000E-01   4.000000E-01   4.000000E-01   4.000000E-01   4.000000E-01   4.000000E-01   4.000000E-01   4.000000E-01   4.000000E-01   4.000000E-01   4.000000E-01   4.000000E-01   4.000000E-01   4.000000E-01   4.000000E-01   4.000000E-01   4.000000E-01   4.000000E-01   4.000000E-01   4.000000E-01   4.000000E-01   4.000000E-01   4.000000E-01   4.000000E-01   4.000000E-01   4.000000E-01   4.000000E-01   4.000000E-01   4.000000E-01   4.000000E-01   4.000000E-01   4.000000E-01   4.000000E-01   4.000000E-01   4.000000E-01   4.000000E-01   4.000000E-01   4.000000E-01   4.000000E-01   4.000000E-01   4.000000E-01   4.000000E-01   4.000000E-01   4.000000E-01   4.000000E-01   4.000000E-01   4.000000E-01   4.000000E-01   4.000000E-01   4.000000E-01   4.000000E-01   4.000000E-01   4.000000E-01   4.000000E-01   