<?xml version="1.0"?>
<!-- Time =  3.0001776260279267E+00s -->
<VTKFile type="PolyData" version="0.1" byte_order="LittleEndian">
<PolyData>
<Piece NumberOfPoints="0000002400" NumberOfVerts="0" NumberOfLines="0" NumberOfStrips="0" NumberOfPolys="0">
<Points>
<DataArray type="Float32" Name="Position" NumberOfComponents="3" format="ascii">
  4.526727E+00   2.062488E-01   2.415511E-01   1.101918E+01   1.492279E+01   3.890175E+00   1.151177E+01   2.052468E+01   6.144261E-01   4.819200E+00   2.135328E-01   2.180828E+00   3.110959E+00   4.033824E+00   2.806848E+00   1.207340E+01   6.623175E-01   4.910165E+00   6.236543E+00   1.170855E+01   4.104832E+00   9.383077E+00   5.708632E-01   2.003940E+00   5.218911E+00   6.304673E-01   2.387054E+00   1.453403E+00   4.215145E-01   2.441034E+00   5.766243E+00   2.116637E-01   4.672656E+00   2.783807E+00   2.501245E-01   4.332923E+00   8.838853E+00   1.284995E+01   3.350544E-01   6.930785E+00   4.082210E+00   5.432767E-01   4.693974E+00   2.012824E+01   2.549528E-01   5.944131E+00   6.863660E-01   1.934260E+00   1.144213E+01   1.758392E+00   1.784105E+00   4.166773E+00   8.544309E+00   4.856186E+00   7.450278E+00   8.984966E+00   2.472652E+00   1.326285E+01   2.676906E+00   7.251247E-01   1.107976E+01   6.421322E-01   9.292616E-01   2.745327E+00   1.550534E+00   4.143161E+00   1.411541E+01   4.315354E+00   4.412356E+00   5.310289E+00   1.050693E+00   4.596648E+00   3.036036E+00   1.154934E+00   4.879079E+00   5.092741E+00   6.951304E-01   8.328846E-01   3.400455E+00   8.388928E+00   1.668028E+00   5.562763E+00   2.709528E+00   2.708653E+00   4.205415E+00   1.017817E+01   4.872249E+00   9.259901E+00   2.114643E+00   3.219192E+00   4.737837E+00   4.696524E-01   2.493926E+00   3.223667E+00   5.979522E+00   8.014448E-01   6.061089E+00   1.913708E+01   2.873632E+00   1.270336E+01   1.274702E+00   8.763618E-01   5.534642E+00   7.393575E+00   5.549056E-01   2.573355E-01   4.926553E+00   4.666229E+00   6.720912E+00   9.198257E-01   2.389380E+00   6.849928E+00   1.131550E+00   8.093296E-01   1.450892E+01   2.099324E-01   2.958208E+00   2.418376E-01   5.784892E-01   2.794299E+00   3.515447E+00   1.040230E+00   1.647344E+00   1.218738E+01   1.161672E+01   1.305375E+00   2.368153E+00   1.036847E+00   3.064820E+00   1.445947E+01   6.938577E+00   1.567137E+00   2.033446E+00   5.276952E-01   7.323195E-01   4.045576E+00   5.684002E-01   8.887008E-01   7.729802E+00   1.310373E+00   2.080672E-01   5.212045E+00   6.188261E+00   4.580105E+00   7.345422E+00   3.659492E-01   1.907989E+00   5.535338E+00   4.915606E-01   4.844636E+00   6.607491E+00   1.645114E+01   3.966192E+00   1.363133E+01   1.938065E+01   5.542313E-01   1.273122E+01   2.845057E+00   4.990863E+00   2.291258E+00   1.660594E+01   2.807863E+00   9.260257E+00   2.056189E-01   2.711002E+00   2.383174E+00   5.687076E-01   1.244149E+00   1.100881E+01   3.537548E-01   2.722883E+00   1.063718E+01   1.064136E+01   8.003224E-01   2.845626E-01   1.143474E+00   2.779662E-01   6.651796E+00   3.206196E-01   2.556147E-01   1.106567E+01   2.347510E-01   3.149353E-01   1.106423E+01   1.118496E+01   4.899127E+00   1.827237E+00   6.156543E+00   3.871511E+00   1.438073E+01   8.467559E+00   3.488640E+00   3.753741E+00   1.578148E+01   6.178311E-01   1.189295E+01   9.864933E+00   2.386944E-01   4.930714E+00   2.002920E-01   2.030582E-01   4.088553E+00   6.611873E+00   3.224319E+00   8.565387E+00   9.424359E+00   4.559463E+00   5.453848E+00   1.752497E+00   4.861993E+00   2.462010E+00   7.658246E-01   4.786180E-01   4.854202E+00   4.883885E-01   4.706018E-01   1.128019E+01   1.494993E+01   2.120501E+00   1.033551E+01   1.605339E+01   4.311616E+00   2.277412E+00   5.672440E+00   6.919266E-01   5.337032E+00   1.559194E+01   3.245693E-01   1.362801E+01   7.250896E+00   3.993451E+00   3.690165E+00   8.077196E-01   1.297488E+00   1.417815E+01   5.843406E-01   1.576122E+00   1.413813E+00   1.345991E+00   6.843886E-01   1.151027E+01   3.894010E-01   9.705418E-01   6.388079E-01   6.316676E-01   6.248952E-01   1.111713E+01   1.983102E-01   2.038152E+00   4.309285E+00   7.049742E+00   4.155631E+00   8.196692E+00   2.632218E-01   1.246224E+00   3.403615E+00   6.525493E-01   4.868962E+00   1.198169E+01   4.798624E-01   1.649123E+00   2.794091E+00   4.712898E-01   3.525592E+00   1.176772E+00   5.843542E-01   3.757132E+00   4.720158E+00   4.714694E+00   3.086010E+00   1.459910E+00   9.356622E-01   3.091222E+00   4.239325E+00   2.627758E+01   4.749481E+00   2.867735E-01   6.098430E-01   2.092213E-01   5.714168E+00   4.350209E+00   2.247474E+00   7.266210E+00   1.126634E+01   3.646591E+00   3.837869E+00   1.441231E+00   3.714957E+00   2.635484E+00   1.141923E+00   1.208369E+00   6.922009E+00   1.845235E+00   3.221504E+00   1.078809E+01   1.343481E+01   2.122383E+00   3.202645E+00   9.302849E-01   3.115310E+00   4.918454E+00   1.278134E+00   4.058696E+00   3.824705E+00   4.707350E-01   5.218747E-01   3.151225E+00   5.199076E+00   4.464067E+00   2.270018E+00   2.765430E-01   3.894494E+00   1.019751E+01   4.887773E-01   1.686722E+00   7.082359E+00   1.239309E+00   2.746929E-01   1.405246E+00   6.200455E-01   6.146374E-01   5.311978E+00   3.163250E+00   2.391549E+00   6.789876E+00   2.175929E-01   3.804435E+00   2.996397E+00   5.859709E-01   6.077672E-01   6.443380E+00   2.045294E-01   5.793850E-01   3.796455E+00   1.996434E-01   8.295133E-01   1.066044E+01   2.028122E+01   3.983696E+00   3.795932E-01   1.050636E+01   2.055563E+00   9.398981E+00   7.539151E-01   4.895918E+00   1.421044E+01   6.669905E+00   1.892676E+00   6.245657E+00   1.018459E+00   1.878886E+00   6.524174E+00   3.879667E+00   4.250557E+00   1.492278E+00   2.174284E-01   2.088180E+00   5.469845E+00   9.371798E+00   1.136640E+00   4.665261E+00   6.089352E+00   3.365921E+00   1.383103E+00   2.410055E-01   1.212341E+00   1.273206E+01   6.436207E-01   4.590776E+00   8.365822E+00   4.159090E-01   2.118081E+00   1.464703E+01   1.054638E+00   2.133284E+00   3.361139E+00   7.888712E-01   4.441147E+00   1.352836E+01   9.640866E+00   3.036094E+00   3.282943E+00   5.140305E-01   2.743047E+00   2.493556E+00   8.880365E+00   3.471415E+00   1.228217E+00   6.232680E+00   3.694517E+00   1.024736E+00   2.090583E-01   2.942608E+00   1.428501E+01   5.393665E-01   9.992874E-01   4.766719E+00   2.335099E-01   3.908247E+00   2.108100E+00   8.012294E-01   3.269014E+00   2.531703E-01   2.048700E-01   4.066218E+00   9.689441E+00   3.055651E-01   4.596005E+00   5.762255E+00   2.408993E+00   7.284232E-01   4.321960E+00   1.192724E+00   4.936579E+00   2.874277E+00   1.442632E+01   3.796393E+00   1.251159E+01   1.463585E+00   3.074583E+00   2.519792E+00   1.513624E+00   1.927956E+00   1.329473E+01   7.546020E+00   2.137574E+00   3.330786E+00   2.077359E-01   9.024698E-01   3.373765E+00   1.094670E+00   3.656863E+00   1.388499E+01   2.124247E-01   6.356263E-01   5.843686E+00   2.804370E-01   2.096257E+00   1.062563E+00   2.016805E-01   2.031331E+00   1.357042E+01   3.625616E-01   3.890615E+00   5.971681E+00   5.154571E+00   2.286490E+00   6.239887E+00   2.015929E-01   2.130174E+00   1.544580E+00   7.651898E+00   3.182462E+00   1.384414E+01   1.499838E+01   1.895241E+00   5.959295E+00   9.338096E-01   2.624601E+00   4.122841E+00   1.346497E+01   3.115005E+00   1.048449E+01   1.061467E+00   2.347717E+00   5.699443E+00   1.215152E+01   3.589125E+00   1.044124E+01   5.643879E-01   5.217192E-01   3.379123E+00   2.058177E-01   1.316681E+00   3.610114E+00   7.614589E-01   2.265401E+00   5.430542E+00   9.838004E+00   2.072795E+00   4.948992E+00   2.815959E+00   4.857857E+00   1.249750E+01   1.310916E+00   2.105927E+00   4.228256E+00   1.675711E+01   2.285061E+00   7.228909E+00   1.065351E+00   3.086558E+00   7.480013E-01   7.313164E+00   3.608568E+00   6.897811E-01   5.522880E-01   2.062175E-01   3.310447E+00   2.037856E-01   2.004610E-01   5.093364E+00   2.071528E-01   1.875989E+00   6.836103E-01   2.073722E-01   4.291225E-01   1.156594E+01   7.783509E+00   2.288633E+00   8.486529E+00   1.026951E+00   1.785302E+00   3.739400E+00   2.354756E-01   2.734703E+00   1.044906E+01   9.342147E+00   3.074673E+00   9.178748E-01   7.654296E-01   1.280050E+00   1.805721E+00   9.976993E-01   4.842055E+00   1.442099E+00   8.912129E-01   9.429657E-01   6.548987E+00   7.321865E-01   4.456306E+00   4.752648E+00   1.359609E+00   1.665402E+00   9.708670E-01   6.006557E-01   3.031652E+00   1.187090E+01   4.526595E+00   1.624841E+00   1.082721E+01   3.860706E-01   1.202303E+00   6.056847E+00   9.907402E+00   3.756787E+00   4.205828E+00   1.135073E+00   3.868604E+00   5.255727E+00   1.608230E+00   2.734342E+00   1.223314E+01   6.932890E-01   1.327174E+00   2.027630E+00   1.996655E-01   1.995103E-01   6.025622E+00   5.113459E-01   4.798898E+00   5.184840E+00   5.835919E-01   3.213668E+00   6.962715E+00   2.351839E+00   9.692541E-01   1.221766E+01   2.172180E+00   2.393401E+00   5.604391E+00   1.317580E+01   4.295901E+00   1.136593E+00   2.785967E-01   4.538849E+00   1.168950E+01   6.176246E-01   2.439831E+00   1.247476E+01   1.585581E+00   1.774269E+00   5.023960E+00   3.263449E-01   3.564024E+00   6.747536E+00   1.940812E+00   4.094176E+00   5.354110E+00   2.238923E-01   2.044746E-01   5.725892E+00   8.569955E+00   6.513896E-01   4.028536E+00   6.999598E-01   2.185775E+00   6.249119E+00   1.348450E+01   1.675709E+00   5.487679E+00   1.054716E+00   7.252966E-01   6.565925E+00   2.782820E+00   4.176739E+00   3.348864E+00   9.744962E+00   4.913356E+00   1.165401E+01   4.810111E+00   4.154546E+00   4.743666E+00   5.518273E-01   4.688526E+00   1.408207E+01   6.563596E+00   6.646428E-01   1.437740E+01   1.138795E+01   8.518044E-01   5.586067E+00   5.521450E-01   3.882962E+00   7.833984E+00   1.526961E+01   8.585008E-01   4.743184E+00   2.640754E+00   1.888551E+00   7.118091E+00   7.447830E+00   4.609097E+00   1.029597E+01   3.335579E+00   9.108069E-01   3.903141E+00   9.943925E-01   2.204560E-01   2.162576E+00   1.804844E+00   3.023840E+00   4.966151E+00   7.782282E+00  
[...]
<PointData Scalars="Diameter" Vectors="Velocity">
<DataArray type="Float32" Name="Diameter" format="ascii">
  4.000000E-01   4.000000E-01   4.000000E-01   4.000000E-01   4.000000E-01   4.000000E-01   4.000000E-01   4.000000E-01   4.000000E-01   4.000000E-01   4.000000E-01   4.000000E-01   4.000000E-01   4.000000E-01   4.000000E-01   4.000000E-01   4.000000E-01   4.000000E-01   4.000000E-01   4.000000E-01   4.000000E-01   4.000000E-01   4.000000E-01   4.000000E-01   4.000000E-01   4.000000E-01   4.000000E-01   4.000000E-01   4.000000E-01   4.000000E-01   4.000000E-01   4.000000E-01   4.000000E-01   4.000000E-01   4.000000E-01   4.000000E-01   4.000000E-01   4.000000E-01   4.000000E-01   4.000000E-01   4.000000E-01   4.000000E-01   4.000000E-01   4.000000E-01   4.000000E-01   4.000000E-01   4.000000E-01   4.000000E-01   4.000000E-01   4.000000E-01   4.000000E-01   4.000000E-01   4.000000E-01   4.000000E-01   4.000000E-01   4.000000E-01   4.000000E-01   4.000000E-01   4.000000E-01   4.000000E-01   4.000000E-01   4.000000E-01   4.000000E-01   4.000000E-01   4.000000E-01   4.000000E-01   4.000000E-01   4.000000E-01   4.000000E-01   4.000000E-01   4.000000E-01   4.000000E-01   4.000000E-01   4.000000E-01   4.000000E-01   4.000000E-01   4.000000E-01   4.000000E-01   4.000000E-01   4.000000E-01   4.000000E-01   4.000000E-01   4.000000E-01   4.000000E-01   4.000000E-01   4.000000E-01   4.000000E-01   4.000000E-01   4.000000E-01   4.000000E-01   4.000000E-01   4.000000E-01   4.000000E-01   4.000000E-01   4.000000E-01   4.000000E-01   4.000000E-01   4.000000E-01   4.000000E-01   4.000000E-01   4.000000E-01   4.000000E-01   4.000000E-01   4.000000E-01   4.000000E-01   4.000000E-01   4.000000E-01   4.000000E-01   4.000000E-01   4.000000E-01   4.000000E-01   4.000000E-01   4.000000E-01   4.000000E-01   4.000000E-01   4.000000E-01   4.000000E-01   4.000000E-01   4.000000E-01   4.000000E-01   4.000000E-01   4.000000E-01   4.000000E-01   4.000000E-01   4.000000E-01   4.000000E-01   4.000000E-01   4.000000E-01   4.000000E-01   4.000000E-01   4.000000E-01   4.000000E-01   4.000000E-01   4.000000E-01   4.000000E-01   4.000000E-01   4.000000E-01   4.000000E-01   4.000000E-01   4.000000E-01   4.000000E-01   4.000000E-01   4.000000E-01   4.000000E-01   4.000000E-01   4.000000E-01   4.000000E-01   4.000000E-01   4.000000E-01   4.000000E-01   4.000000E-01   4.000000E-01   4.000000E-01   4.000000E-01   4.000000E-01   4.000000E-01   4.000000E-01   4.000000E-01   4.000000E-01   4.000000E-01   4.000000E-01   4.000000E-01   4.000000E-01   4.000000E-01   4.000000E-01   4.000000E-01   4.000000E-01   4.000000E-01   4.000000E-01   4.000000E-01   4.000000E-01   4.000000E-01   4.000000E-01   4.000000E-01   4.000000E-01   4.000000E-01   4.000000E-01   4.000000E-01   4.000000E-01   4.000000E-01   4.000000E-01   4.000000E-01   4.000000E-01   4.000000E-01   4.000000E-01   4.000000E-01   4.000000E-01   4.000000E-01   4.000000E-01   4.000000E-01   4.000000E-01   4.000000E-01   4.000000E-01   4.000000E-01   4.000000E-01   4.000000E-01   4.000000E-01   4.000000E-01   4.000000E-01   4.000000E-01   4.000000E-01   4.000000E-01   4.000000E-01   4.000000E-01   4.000000E-01   4.000000E-01   4.000000E-01   4.000000E-01   4.000000E-01   4.000000E-01   4.000000E-01   4.000000E-01   4.000000E-01   4.000000E-01   4.000000E-01   4.000000E-01   4.000000E-01   4.000000E-01   4.000000E-01   4.000000E-01   4.000000E-01   4.000000E-01   4.000000E-01   4.000000E-01   4.000000E-01   4.000000E-01   4.000000E-01   4.000000E-01   4.000000E-01   4.000000E-01   4.000000E-01   4.000000E-01   4.000000E-01   4.000000E-01   4.000000E-01   4.000000E-01   4.000000E-01   4.000000E-01   4.000000E-01   4.000000E-01   4.000000E-01   4.000000E-01   4.000000E-01   4.000000E-01   4.000000E-01   4.000000E-01   4.000000E-01   4.000000E-01   4.000000E-01   4.000000E-01   4.000000E-01   4.000000E-01   4.000000E-01   4.000000E-01   4.000000E-01   4.000000E-01   4.000000E-01   4.000000E-01   4.000000E-01   4.000000E-01   4.000000E-01   4.000000E-01   4.000000E-01   4.000000E-01   4.000000E-01   4.000000E-01   4.000000E-01   4.000000E-01   4.000000E-01   4.000000E-01   4.000000E-01   4.000000E-01   4.000000E-01   4.000000E-01   4.000000E-01   4.000000E-01   4.000000E-01   4.000000E-01   4.000000E-01   4.000000E-01   4.000000E-01   4.000000E-01   4.000000E-01   4.000000E-01   4.000000E-01   4.000000E-01   4.000000E-01   4.000000E-01   4.000000E-01   4.000000E-01   4.000000E-01   4.000000E-01   4.000000E-01   4.000000E-01   4.000000E-01   4.000000E-01   4.000000E-01   4.000000E-01   4.000000E-01   4.000000E-01   4.000000E-01   4.000000E-01   4.000000E-01   4.000000E-01   4.000000E-01   4.000000E-01   4.000000E-01   4.000000E-01   4.000000E-01   4.000000E-01   4.000000E-01   4.000000E-01   4.000000E-01   4.000000E-01   4.000000E-01   4.000000E-01   4.000000E-01   4.000000E-01   4.000000E-01   4.000000E-01   4.000000E-01   4.000000E-01   4.000000E-01   4.000000E-01   4.000000E-01   4.000000E-01   4.000000E-01   4.000000E-01   4.000000E-01   4.000000E-01   4.000000E-01   4.000000E-01   4.000000E-01   4.000000E-01   4.000000E-01   4.000000E-01   4.000000E-01   4.000000E-01   4.000000E-01   4.000000E-01   4.000000E-01   4.000000E-01   4.000000E-01   4.000000E-01   4.000000E-01   4.000000E-01   4.000000E-01   4.000000E-01   4.000000E-01   4.000000E-01   4.000000E-01   4.000000E-01   4.000000E-01   4.000000E-01   4.000000E-01   4.000000E-01   4.000000E-01   4.000000E-01   4.000000E-01   4.000000E-01   4.000000E-01   4.000000E-01   4.000000E-01   4.000000E-01   4.000000E-01   4.000000E-01   4.000000E-01   4.000000E-01   4.000000E-01   4.000000E-01   4.000000E-01   4.000000E-01   4.000000E-01   4.000000E-01   4.000000E-01   4.000000E-01   4.000000E-01   4.000000E-01   4.000000E-01   4.000000E-01   4.000000E-01   4.000000E-01   4.000000E-01   4.000000E-01   4.000000E-01   4.000000E-01   4.000000E-01   4.000000E-01   4.000000E-01   4.000000E-01   4.000000E-01   4.000000E-01   4.000000E-01   4.000000E-01   4.000000E-01   4.000000E-01   4.000000E-01   4.000000E-01   4.000000E-01   4.000000E-01   4.000000E-01   4.000000E-01   4.000000E-01   4.000000E-01   4.000000E-01   4.000000E-01   4.000000E-01   4.000000E-01   4.000000E-01   4.000000E-01   4.000000E-01   4.000000E-01   4.000000E-01   4.000000E-01   4.000000E-01   4.000000E-01   4.000000E-01   4.000000E-01   4.000000E-01   4.000000E-01   4.000000E-01   4.000000E-01   4.000000E-01   4.000000E-01   4.000000E-01   4.000000E-01   4.000000E-01   4.000000E-01   4.000000E-01   4.000000E-01   4.000000E-01   4.000000E-01   4.000000E-01   4.000000E-01   4.000000E-01   4.000000E-01   4.000000E-01   4.000000E-01   4.000000E-01   4.000000E-01   4.000000E-01   4.000000E-01   4.000000E-01   4.000000E-01   4.000000E-01   4.000000E-01   4.000000E-01   4.000000E-01   4.000000E-01   4.000000E-01   4.000000E-01   4.000000E-01   4.000000E-01   4.000000E-01   4.000000E-01   4.000000E-01   4.000000E-01   4.000000E-01   4.000000E-01   4.000000E-01   4.000000E-01   4.000000E-01   4.000000E-01   4.000000E-01   4.000000E-01   4.000000E-01   4.000000E-01   4.000000E-01   4.000000E-01   4.000000E-01   4.000000E-01   4.000000E-01   4.000000E-01   4.000000E-01   4.000000E-01   4.000000E-01   4.000000E-01   4.000000E-01   4.000000E-01   4.000000E-01   4.000000E-01   4.000000E-01   4.000000E-01   4.000000E-01   4.000000E-01   4.000000E-01   4.000000E-01   4.000000E-01   4.000000E-01   4.000000E-01   4.000000E-01   4.000000E-01   4.000000E-01   4.000000E-01   4.000000E-01   4.000000E-01   4.000000E-01   4.000000E-01   4.000000E-01   4.000000E-01   4.000000E-01   4.000000E-01   4.000000E-01   4.000000E-01   4.000000E-01   4.000000E-01   4.000000E-01   4.000000E-01   4.000000E-01   4.000000E-01   4.000000E-01   4.000000E-01   4.000000E-01   4.000000E-01   4.000000E-01   4.000000E-01   4.000000E-01   4.000000E-01   4.000000E-01   4.000000E-01   4.000000E-01   4.000000E-01   4.000000E-01   4.000000E-01   4.000000E-01   4.000000E-01   4.000000E-01   4.000000E-01   4.000000E-01   4.000000E-01   4.000000E-01   4.000000E-01   4.000000E-01   4.000000E-01   4.000000E-01   4.000000E-01   4.000000E-01   4.000000E-01   4.000000E-01   4.000000E-01   4.000000E-01   4.000000E-01   4.000000E-01   4.000000E-01   4.000000E-01   4.000000E-01   4.000000E-01   4.000000E-01   4.000000E-01   4.000000E-01   4.000000E-01   4.000000E-01   4.000000E-01   4.000000E-01   4.000000E-01   4.000000E-01   4.000000E-01   4.000000E-01   4.000000E-01   4.000000E-01   4.000000E-01   4.000000E-01   4.000000E-01   4.000000E-01   4.000000E-01   4.000000E-01   4.000000E-01   4.000000E-01   4.000000E-01   4.000000E-01   4.000000E-01   4.000000E-01   4.000000E-01   4.000000E-01   4.000000E-01   4.000000E-01   4.000000E-01   4.000000E-01   4.000000E-01   4.000000E-01   4.000000E-01   4.000000E-01   4.000000E-01   4.000000E-01   4.000000E-01   4.000000E-01   4.000000E-01   4.000000E-01   4.000000E-01   4.000000E-01   4.000000E-01   4.000000E-01   4.000000E-01   4.000000E-01   4.000000E-01   4.000000E-01   4.000000E-01   4.000000E-01   4.000000E-01   4.000000E-01   4.000000E-01   4.000000E-01   4.000000E-01   4.000000E-01   4.000000E-01   4.000000E-01   4.000000E-01   4.000000E-01   4.000000E-01   4.000000E-01   4.000000E-01   4.000000E-01   4.000000E-01   4.000000E-01   4.000000E-01   4.000000E-01   4.000000E-01   4.000000E-01   4.000000E-01   4.000000E-01   4.000000E-01   4.000000E-01   4.000000E-01   4.000000E-01   4.000000E-01   4.000000E-01   4.000000E-01   4.000000E-01   4.000000E-01   4.000000E-01   4.000000E-01   4.000000E-01   4.000000E-01   4.000000E-01   4.000000E-01   4.000000E-01   4.000000E-01   4.000000E-01   4.000000E-01   4.000000E-01   4.000000E-01   4.000000E-01   4.000000E-01   4.000000E-01   4.000000E-01   4.000000E-01   4.000000E-01   4.000000E-01   4.000000E-01   4.000000E-01   4.000000E-01   4.000000E-01   4.000000E-01   4.000000E-01   4.000000E-01   4.000000E-01   4.000000E-01   4.000000E-01   4.000000E-01   4.000000E-01   4.000000E-01   4.000000E-01   4.000000E-01   4.000000E-01   4.000000E-01   4.000000E-01   4.000000E-01   4.000000E-01   4.000000E-01   4.000000E-01   4.000000E-01   4.000000E-01   4.000000E-01   4.000000E-01   4.000000E-01   4.000000E-01   4.000000E-01   4.000000E-01   4.000000E-01   4.000000E-01   4.000000E-01   4.000000E-01   4.000000E-01   4.000000E-01   4.000000E-01   4.000000E-01   4.000000E-01   4.000000E-01   4.000000E-01   4.000000E-01   4.000000E-01   4.000000E-01   4.000000E-01   4.000000E-01   4.000000E-01   4.000000E-01   4.000000E-01   4.000000E-01   4.000000E-01   4.000000E-01   4.000000E-01   4.000000E-01   4.000000E-01   4.000000E-01   4.000000E-01   4.000000E-01   4.000000E-01   4.000000E-01   4.000000E-01   4.000000E-01   4.000000E-01   4.000000E-01   4.000000E-01   4.000000E-01   4.000000E-01   4.000000E-01   4.000000E-01   4.000000E-01   4.000000E-01   4.000000E-01   4.000000E-01   4.000000E-01   4.000000E-01   4.000000E-01   4.000000E-01   4.000000E-01   4.000000E-01   4.000000E-01   4.000000E-01   4.000000E-01   4.000000E-01   4.000000E-01   4.000000E-01   4.000000E-01   4.000000E-01   4.000000E-01   4.000000E-01   4.000000E-01   4.000000E-01   4.000000E-01   4.000000E-01   4.000000E-01   4.000000E-01   4.000000E-01   4.000000E-01   4.000000E-01   4.000000E-01   4.000000E-01   4.000000E-01   4.000000E-01   4.000000E-01   4.000000E-01   4.000000E-01   4.000000E-01   4.000000E-01   4.000000E-01   4.000000E-01   4.000000E-01   4.000000E-01   4.000000E-01   4.000000E-01   4.000000E-01   4.000000E-01   4.000000E-01   4.000000E-01   4.000000E-01   4.000000E-01   4.000000E-01   4.000000E-01   4.000000E-01   4.000000E-01   4.000000E-01   4.000000E-01   4.000000E-01   4.000000E-01   4.000000E-01   4.000000E-01   4.000000E-01   4.000000E-01   4.000000E-01   4.000000E-01   4.000000E-01   4.000000E-01   4.000000E-01   4.000000E-01   4.000000E-01   4.000000E-01   4.000000E-01   4.000000E-01   4.000000E-01   4.000000E-01   4.000000E-01   4.000000E-01   4.000000E-01   4.000000E-01   4.000000E-01   4.000000E-01   4.000000E-01   4.000000E-01   4.000000E-01   4.000000E-01   4.000000E-01   4.000000E-01   4.000000E-01   4.000000E-01   4.000000E-01   4.000000E-01   4.000000E-01   4.000000E-01   4.000000E-01   4.000000E-01   4.000000E-01   4.000000E-01   4.000000E-01   4.000000E-01   4.000000E-01   4.000000E-01   4.000000E-01   4.000000E-01   4.000000E-01   4.000000E-01   4.000000E-01   4.000000E-01   4.000000E-01   4.000000E-01   4.000000E-01   4.000000E-01   4.000000E-01   4.000000E-01   4.000000E-01   4.000000E-01   4.000000E-01   4.000000E-01   4.000000E-01   4.000000E-01   4.000000E-01   4.000000E-01   4.000000E-01   4.000000E-01   4.000000E-01   4.000000E-01   4.000000E-01   4.000000E-01   4.000000E-01   4.000000E-01   4.000000E-01   4.000000E-01   4.000000E-01   4.000000E-01   4.000000E-01   4.000000E-01   4.000000E-01   4.000000E-01   4.000000E-01   4.000000E-01   4.000000E-01   4.000000E-01   4.000000E-01   4.000000E-01   4.000000E-01   4.000000E-01   4.000000E-01   4.000000E-01   4.000000E-01   4.000000E-01   4.000000E-01   4.000000E-01   4.000000E-01   4.000000E-01   4.000000E-01   4.000000E-01   4.000000E-01   4.000000E-01   4.000000E-01   4.000000E-01   4.000000E-01   4.000000E-01   4.000000E-01   4.000000E-01   4.000000E-01   4.000000E-01   4.000000E-01   4.000000E-01   4.000000E-01   4.000000E-01   4.000000E-01   4.000000E-01   4.000000E-01   4.000000E-01   4.000000E-01   4.000000E-01   4.000000E-01   4.000000E-01   4.000000E-01   4.000000E-01   4.000000E-01   4.000000E-01   4.000000E-01   4.000000E-01   4.000000E-01   4.000000E-01   4.000000E-01   4.000000E-01   4.000000E-01   4.000000E-01   4.000000E-01   4.000000E-01   4.000000E-01   4.000000E-01   4.000000E-01   4.000000E-01   4.000000E-01   4.000000E-01   4.000000E-01   4.000000E-01   4.000000E-01   4.000000E-01   4.000000E-01   4.000000E-01   4.000000E-01   4.000000E-01   4.000000E-01   4.000000E-01   4.000000E-01   4.000000E-01   4.000000E-01   4.000000E-01   4.000000E-01   4.000000E-01   4.000000E-01   4.000000E-01   4.000000E-01   4.000000E-01   4.000000E-01   4.000000E-01   4.000000E-01   4.000000E-01   4.000000E-01   4.000000E-01   4.000000E-01   4.000000E-01   4.000000E-01   4.000000E-01   4.000000E-01   4.000000E-01   4.000000E-01   4.000000E-01   4.000000E-01   4.000000E-01   4.000000E-01   4.000000E-01   4.000000E-01   4.000000E-01   4.000000E-01   4.000000E-01   4.000000E-01   4.000000E-01   4.000000E-01   4.000000E-01   4.000000E-01   4.000000E-01   4.000000E-01   4.000000E-01   4.000000E-01   4.000000E-01   4.000000E-01   4.000000E-01   4.000000E-01   4.000000E-01   4.000000E-01   4.000000E-01   4.000000E-01   4.000000E-01   4.000000E-01   4.000000E-01   4.000000E-01   4.000000E-01   4.000000E-01   4.000000E-01   4.000000E-01   4.000000E-01   4.000000E-01   4.000000E-01   4.000000E-01   4.000000E-01   4.000000E-01   4.000000E-01   4.000000E-01   4.000000E-01   4.000000E-01   4.000000E-01   4.000000E-01   4.000000E-01   4.000000E-01   4.000000E-01   4.000000E-01   4.000000E-01   4.000000E-01   4.000000E-01   4.000000E-01   4.000000E-01   4.000000E-01   4.000000E-01   4.000000E-01   4.000000E-01   4.000000E-01   4.000000E-01   4.000000E-01   4.000000E-01   4.000000E-01   4.000000E-01   4.000000E-01   4.000000E-01   4.000000E-01   4.000000E-01   4.000000E-01   4.000000E-01   4.000000E-01   4.000000E-01   4.000000E-01   4.000000E-01   4.000000E-01   4.000000E-01   4.000000E-01   4.000000E-01   4.000000E-01   4.000000E-01   4.000000E-01   4.000000E-01   4.000000E-01   4.000000E-01   4.000000E-01   4.000000E-01   4.000000E-01   4.000000E-01   4.000000E-01   4.000000E-01   4.000000E-01   4.000000E-01   4.000000E-01   4.000000E-01   4.000000E-01   4.000000E-01   4.000000E-01   4.000000E-01   4.000000E-01   4.000000E-01   4.000000E-01   4.000000E-01   4.000000E-01   4.000000E-01   4.000000E-01   4.000000E-01   4.000000E-01   4.000000E-01   4.000000E-01   4.000000E-01   4.000000E-01   4.000000E-01   4.000000E-01   4.000000E-01   4.000000E-01   4.000000E-01   4.000000E-01   4.000000E-01   4.000000E-01   4.000000E-01   4.000000E-01   4.000000E-01   4.000000E-01   4.000000E-01   4.000000E-01   4.000000E-01   4.000000E-01   4.000000E-01   4.000000E-01   4.000000E-01   4.000000E-01   4.000000E-01   4.000000E-01   4.000000E-01   4.000000E-01   4.000000E-01   4.000000E-01   4.000000E-01   4.000000E-01   4.000000E-01   4.000000E-01   4.000000E-01   4.000000E-01   4.000000E-01   4.000000E-01   4.000000E-01   4.000000E-01   4.000000E-01   4.000000E-01   4.000000E-01   4.000000E-01   4.000000E-01   4.000000E-01   4.000000E-01   4.000000E-01   4.000000E-01   4.000000E-01   4.000000E-01   4.000000E-01   4.000000E-01   4.000000E-01   4.000000E-01   4.000000E-01   4.000000E-01   4.000000E-01   4.000000E-01   4.000000E-01   4.000000E-01   4.000000E-01   4.000000E-01   4.000000E-01   4.000000E-01   4.000000E-01   4.000000E-01   4.000000E-01   4.000000E-01   4.000000E-01   4.000000E-01   4.000000E-01   4.000000E-01   4.000000E-01   4.000000E-01   4.000000E-01   4.000000E-01   4.000000E-01   4.000000E-01   4.000000E-01   4.000000E-01   4.000000E-01   4.000000E-01   4.000000E-01   4.000000E-01   4.000000E-01   4.000000E-01   4.000000E-01   4.000000E-01   4.000000E-01   4.000000E-01   4.000000E-01   4.000000E-01   4.000000E-01   4.000000E-01   4.000000E-01   4.000000E-01   4.000000E-01   4.000000E-01   4.000000E-01   4.000000E-01   4.000000E-01   4.000000E-01   4.000000E-01   4.000000E-01   4.000000E-01   4.000000E-01   4.000000E-01   4.000000E-01   4.000000E-01   4.000000E-01   4.000000E-01   4.000000E-01   4.000000E-01   4.000000E-01   4.000000E-01   4.000000E-01   4.000000E-01   4.000000E-01   4.000000E-01   4.000000E-01   4.000000E-01   4.000000E-01   4.000000E-01   4.000000E-01   4.000000E-01   4.000000E-01   4.000000E-01   4.000000E-01   4.000000E-01   4.000000E-01   4.000000E-01   4.000000E-01   4.000000E-01   4.000000E-01   4.000000E-01   4.000000E-01   4.000000E-01   4.000000E-01   4.000000E-01   4.000000E-01   4.000000E-01   4.000000E-01   4.000000E-01   4.000000E-01   4.000000E-01   4.000000E-01   4.000000E-01   4.000000E-01   4.000000E-01   4.000000E-01   4.000000E-01   4.000000E-01   4.000000E-01   4.000000E-01   4.000000E-01   4.000000E-01   4.000000E-01   4.000000E-01   4.000000E-01   4.000000E-01   4.000000E-01   4.000000E-01   4.000000E-01   4.000000E-01   4.000000E-01   4.000000E-01   4.000000E-01   4.000000E-01   4.000000E-01   4.000000E-01   4.000000E-01   4.000000E-01   4.000000E-01   4.000000E-01   4.000000E-01   4.000000E-01   4.000000E-01   4.000000E-01   4.000000E-01   4.000000E-01   4.000000E-01   4.000000E-01   4.000000E-01   4.000000E-01   4.000000E-01   4.000000E-01   4.000000E-01   4.000000E-01   4.000000E-01   4.000000E-01   4.000000E-01   4.000000E-01   4.000000E-01   4.000000E-01   4.000000E-01   4.000000E-01   4.000000E-01   4.000000E-01   4.000000E-01   4.000000E-01   4.000000E-01   4.000000E-01   4.000000E-01   4.000000E-01   4.000000E-01   4.000000E-01   4.000000E-01   4.000000E-01   4.000000E-01   4.000000E-01   4.000000E-01   4.000000E-01   4.000000E-01   4.000000E-01   4.000000E-01   4.000000E-01   4.000000E-01   4.000000E-01   4.000000E-01   4.000000E-01   4.000000E-01   4.000000E-01   4.000000E-01   4.000000E-01   4.000000E-01   4.000000E-01   4.000000E-01   4.000000E-01   4.000000E-01   4.000000E-01   4.000000E-01   4.000000E-01   4.000000E-01   4.000000E-01   4.000000E-01   4.000000E-01   4.000000E-01   4.000000E-01   4.000000E-01   4.000000E-01   4.000000E-01   4.000000E-01   4.000000E-01   4.000000E-01   4.000000E-01   4.000000E-01   4.000000E-01   4.000000E-01   4.000000E-01   4.000000E-01   4.000000E-01   4.000000E-01   4.000000E-01   4.000000E-01   4.000000E-01   4.000000E-01   4.000000E-01   4.000000E-01   4.000000E-01   4.000000E-01   4.000000E-01   4.000000E-01   4.000000E-01   4.000000E-01   4.000000E-01   4.000000E-01   4.000000E-01   4.000000E-01   4.000000E-01   4.000000E-01   4.000000E-01   