<?xml version="1.0"?>
<!-- Time =  9.0017762602810325E-01s -->
<VTKFile type="PolyData" version="0.1" byte_order="LittleEndian">
<PolyData>
<Piece NumberOfPoints="0000002400" NumberOfVerts="0" NumberOfLines="0" NumberOfStrips="0" NumberOfPolys="0">
<Points>
<DataArray type="Float32" Name="Position" NumberOfComponents="3" format="ascii">
  2.602161E-01   2.358245E-01   2.160733E-01   1.810304E+00   2.213996E-01   6.750419E-01   3.521899E+00   2.772919E-01   2.523732E-01   4.325670E+00   2.025841E-01   3.331621E-01   4.828442E+00   2.184880E-01   2.061758E-01   6.702804E+00   2.230189E-01   2.021992E-01   6.612782E+00   1.203247E+00   2.357832E-01   6.211403E+00   8.424198E+00   2.085899E+00   8.524282E+00   1.150319E+00   1.432528E+00   4.562679E+00   9.443190E-01   1.267557E+00   1.191394E+01   9.419819E+00   3.531328E+00   6.506831E+00   5.869120E-01   6.021518E-01   4.808059E+00   6.172544E-01   4.047850E+00   1.183473E+00   9.747792E-01   1.230525E+00   5.884372E+00   3.229820E+00   8.542795E-01   4.954112E+00   3.624081E+00   3.245282E+00   3.607191E+00   3.181877E+00   1.942063E+00   9.800985E-01   7.981861E+00   1.986712E-01   3.445408E+00   7.974538E-01   1.375543E+00   1.249705E+01   1.379679E+01   1.859294E+00   1.128603E+01   1.314655E+01   8.084850E-01   5.672454E+00   1.731341E+01   1.609566E+00   7.160966E+00   4.225043E+00   1.521891E+00   7.827246E+00   2.526188E+00   2.221526E-01   5.573352E+00   5.573739E+00   1.013707E+00   6.750356E+00   2.584922E+00   2.228569E-01   8.318173E+00   2.524630E-01   3.378547E-01   9.053736E+00   2.512581E-01   2.428568E-01   9.498191E+00   4.197286E-01   3.209849E-01   9.774958E+00   6.185175E-01   1.178117E+00   1.260262E+01   7.134861E-01   2.546477E-01   1.106180E+01   6.558731E-01   1.806721E+00   1.239595E+01   1.071797E+00   4.475183E-01   5.068755E-01   2.041852E-01   1.510170E+00   1.092528E+00   5.822002E-01   5.874867E-01   2.838767E+00   2.207715E-01   3.163463E-01   3.916978E+00   5.813874E-01   3.505851E-01   4.319459E+00   6.519567E-01   2.012098E-01   5.602345E+00   2.106636E-01   2.080988E-01   7.099524E+00   3.538562E-01   6.559430E-01   4.445022E+00   3.837149E+00   4.536652E-01   5.815495E+00   6.996502E-01   8.233026E-01   5.547514E+00   8.400772E-01   2.154954E-01   2.254405E+00   5.584995E+00   3.730579E+00   7.659497E+00   9.364099E+00   2.455339E+00   6.489450E+00   4.290859E+00   7.247377E-01   5.533361E+00   2.991373E-01   7.750344E-01   6.076286E+00   5.125580E-01   1.549138E+00   2.638099E+00   2.073717E-01   3.398021E+00   3.711477E+00   1.966083E-01   3.163938E+00   6.636029E+00   5.753633E-01   9.824032E-01   2.875426E+00   7.197481E+00   5.862938E-01   3.168093E+00   6.625537E+00   3.212571E+00   8.263245E+00   7.939475E-01   2.420122E+00   5.824175E+00   8.003798E-01   1.331223E+00   4.661851E+00   7.365184E-01   7.080864E-01   7.207129E+00   3.294448E+00   1.098633E+00   5.070420E+00   2.439264E+00   1.201977E+00   7.138068E+00   1.117123E+00   2.913154E-01   7.734495E+00   5.536649E-01   8.209306E-01   7.898879E+00   8.037436E-01   1.385270E+00   8.672255E+00   4.896378E-01   2.303048E-01   1.212631E+01   1.367372E+00   8.445308E-01   1.175190E+01   1.059364E+00   1.042594E+00   1.194501E+01   6.025839E-01   1.140570E+00   1.325052E+01   3.232669E-01   5.185969E-01   6.872024E-01   2.762523E-01   2.352808E-01   1.153926E+00   2.925992E-01   1.987518E-01   2.055599E+00   2.055199E-01   3.589953E-01   5.084529E+00   2.056628E-01   1.341753E+00   5.846691E+00   5.533776E-01   2.101174E-01   5.212938E+00   3.837519E-01   2.291257E-01   6.142989E+00   2.001742E-01   2.597740E-01   6.049690E+00   2.430116E+00   1.096745E+00   6.977228E+00   5.932043E-01   3.553017E-01   2.967534E+00   1.497805E+00   7.284825E-01   5.416544E+00   6.552337E-01   1.054443E+00   7.417060E+00   1.593118E+00   5.676197E-01   4.541181E+00   5.575302E-01   2.081278E+00   1.980888E-01   8.925901E-01   3.043028E+00   1.893662E-01   4.294189E-01   3.388092E+00   2.352947E+00   1.943551E+01   2.062171E-01   8.673677E+00   1.303702E+01   9.372929E-01   2.242249E+00   1.057402E+00   1.766421E+00   8.270341E+00   4.243412E+00   3.958882E+00   1.961380E+00   7.819359E-01   1.420625E+00   2.912025E+00   5.188818E+00   9.700688E-01   6.925137E+00   1.417435E+01   2.536205E-01   7.438125E+00   8.840514E+00   2.923920E+00   6.195334E+00   1.392249E+00   4.833112E-01   7.788917E+00   5.871321E-01   3.403252E-01   9.927327E+00   6.297846E-01   4.862291E-01   7.283284E+00   1.852707E+00   1.417478E+00   8.227952E+00   7.974151E-01   1.020684E+00   1.162993E+01   6.751240E-01   3.875217E-01   1.266448E+01   5.436953E-01   9.198577E-01   9.443350E-01   2.785367E-01   1.287965E+00   3.572055E+00   1.913622E-01   7.193345E-01   4.000824E+00   2.069396E-01   6.129704E-01   4.675684E+00   2.389975E-01   5.776939E-01   5.170707E+00   2.033634E-01   5.868890E-01   6.213978E+00   1.994162E-01   7.198192E-01   1.778364E+00   3.728630E+00   2.091971E+00   2.931484E+00   1.203176E+01   4.813594E-01   5.193998E+00   7.746402E-01   4.337394E-01   4.249680E-01   1.502036E+00   3.536000E-01   3.484049E+00   9.241238E-01   2.499456E+00   1.241320E+01   1.210802E+01   3.964953E+00   1.993251E+00   2.468302E+00   1.203847E+00   9.821375E+00   2.336414E-01   1.876652E+00   1.775800E+00   1.732972E+00   3.338952E+00   6.022114E+00   6.401346E-01   3.377000E+00   5.745935E-01   8.017968E-01   4.178992E+00   1.784311E+00   8.139891E-01   2.638218E+00   4.231911E+00   5.653493E+00   4.593513E+00   4.843677E+00   5.901746E-01   3.058701E+00   7.681332E+00   2.545196E+01   2.147300E+00   4.391715E+00   1.118040E+00   2.871009E+00   2.294607E+00   9.893839E-01   2.464632E+00   4.890803E+00   6.247928E+00   1.531705E+00   5.679383E+00   1.985830E+00   2.522366E-01   7.381813E+00   8.460271E-01   1.628681E+00   8.177196E+00   2.260821E-01   1.537576E+00   9.566418E+00   4.655899E-01   7.105792E-01   1.030086E+01   1.964639E-01   2.399166E-01   1.224809E+01   3.111449E-01   1.363164E+00   1.468222E+01   9.842464E-01   7.943243E-01   5.961317E-01   2.088469E-01   1.105884E+00   2.477582E+00   3.105181E-01   2.141896E+00   3.681660E+00   1.044899E+00   2.956152E-01   4.646012E+00   1.957200E-01   1.388726E+00   6.088729E+00   5.516112E-01   5.786040E-01   5.853789E+00   2.152525E-01   5.357584E-01   7.137435E+00   8.846533E-01   9.402362E-01   4.425406E+00   1.307716E+01   2.351233E+00   6.138231E+00   5.104172E-01   9.887661E-01   1.025028E+00   8.400460E-01   4.451511E+00   8.179744E+00   1.382365E+01   3.134326E+00   8.965781E+00   6.211650E-01   4.033350E+00   1.319849E+01   1.777703E+00   2.956352E+00   4.229219E+00   4.260986E-01   1.207437E+00   6.468733E+00   1.999384E-01   1.029616E+00   5.313056E+00   1.489418E+00   6.536791E-01   1.407720E+01   8.285054E-01   2.056348E+00   6.123050E+00   8.132272E-01   4.172875E+00   1.211417E+01   4.692819E-01   2.900981E+00   2.194538E+00   7.838736E-01   4.027559E+00   1.149361E+01   3.136499E-01   5.444027E-01   2.684124E+00   2.105417E-01   1.116521E+00   5.799372E-01   2.390553E+00   4.727017E+00   8.256165E+00   9.505097E+00   5.088124E-01   3.744717E+00   9.339233E+00   2.540193E+00   3.447994E+00   6.629526E+00   1.301154E+00   6.891363E+00   1.887825E+00   1.227143E+00   7.381556E+00   1.391207E+00   1.000943E+00   9.111659E+00   2.062864E-01   6.424124E-01   1.121099E+01   5.957829E-01   2.955027E-01   1.189559E+01   2.927406E-01   4.170832E-01   1.383507E+01   2.451349E-01   5.137968E-01   1.422919E+01   2.096873E-01   3.451933E-01   3.026818E+00   3.449249E-01   9.037350E-01   5.259068E+00   6.065373E-01   2.955980E+00   3.930239E+00   2.082315E-01   2.001678E-01   5.030989E+00   5.569319E-01   7.240067E-01   5.874109E+00   2.059385E-01   9.941639E-01   4.102456E+00   9.180803E+00   3.938303E-01   6.722300E+00   2.303123E-01   6.731110E-01   1.526897E+00   1.893827E+00   4.468268E+00   5.057738E+00   1.332443E+01   1.170237E+00   8.119209E-01   5.940703E-01   1.508680E+00   1.436838E+01   7.419403E-01   2.838714E+00   7.528695E+00   7.643633E+00   2.789263E+00   6.404207E+00   5.719354E-01   2.071047E-01   9.184940E+00   1.540942E+00   1.530762E+00   3.968801E+00   3.600164E+00   2.038836E+00   4.181050E+00   6.037717E-01   4.809367E+00   3.513177E+00   1.532423E+00   7.894778E-01   6.516831E+00   1.014233E+00   1.149976E+00   1.305201E+01   1.275757E+01   1.218685E+00   1.173950E+01   1.051511E+00   1.739154E+00   1.195119E+01   6.316032E-01   1.835565E+00   1.072189E+01   2.274150E-01   3.556716E-01   7.339048E+00   4.861984E-01   9.939521E-01   6.142429E+00   1.011164E+00   1.509876E+00   9.871242E+00   1.115218E+01   1.240193E+00   8.611109E+00   1.543417E+00   2.029778E+00   6.139498E+00   4.338609E+00   1.787275E+00   6.812025E+00   2.665272E+00   1.150562E+00   6.511148E+00   5.035715E+00   1.612696E+00   8.176890E+00   3.122698E-01   1.130367E+00   4.366389E+00   1.030637E+01   5.366126E-01   1.115061E+01   1.992348E-01   2.583679E-01   1.472546E+01   3.866733E-01   1.356585E+00   6.247633E-01   3.812311E-01   1.863582E+00   2.554320E+00   2.688565E-01   5.977550E-01   3.827408E+00   2.227297E-01   1.455492E+00   4.889147E+00   2.283156E-01   9.490286E-01   6.892499E+00   3.117025E-01   1.164275E+00   1.494806E+00   7.687294E+00   2.798540E+00   1.215536E+00   1.179258E+01   2.630160E+00   1.252342E+00   8.344421E+00   9.348859E-01   2.682588E+00   4.655761E-01   2.649838E+00   1.787964E+00   8.463961E+00   3.792765E-01   1.349272E+01   2.460369E+00   1.343368E+00   2.917291E+00   1.150640E+01   3.838801E+00   8.583074E+00   5.791167E-01   2.291099E+00   1.192662E+01   9.018220E-01   2.372401E+00   6.656744E+00   2.730597E+00   7.900263E-01   4.664148E+00   1.382727E+01   3.049434E+00   2.585288E+00   8.474374E-01   2.095025E+00   1.232412E+01   2.108317E+00   4.348029E+00   6.093755E+00   8.846406E-01   3.740402E+00   1.360879E+01   2.889238E-01   4.748252E+00   4.518329E+00   6.604513E+00   3.473200E+00   7.906905E+00   2.015106E+01  
[...]
<PointData Scalars="Diameter" Vectors="Velocity">
<DataArray type="Float32" Name="Diameter" format="ascii">
  4.000000E-01   4.000000E-01   4.000000E-01   4.000000E-01   4.000000E-01   4.000000E-01   4.000000E-01   4.000000E-01   4.000000E-01   4.000000E-01   4.000000E-01   4.000000E-01   4.000000E-01   4.000000E-01   4.000000E-01   4.000000E-01   4.000000E-01   4.000000E-01   4.000000E-01   4.000000E-01   4.000000E-01   4.000000E-01   4.000000E-01   4.000000E-01   4.000000E-01   4.000000E-01   4.000000E-01   4.000000E-01   4.000000E-01   4.000000E-01   4.000000E-01   4.000000E-01   4.000000E-01   4.000000E-01   4.000000E-01   4.000000E-01   4.000000E-01   4.000000E-01   4.000000E-01   4.000000E-01   4.000000E-01   4.000000E-01   4.000000E-01   4.000000E-01   4.000000E-01   4.000000E-01   4.000000E-01   4.000000E-01   4.000000E-01   4.000000E-01   4.000000E-01   4.000000E-01   4.000000E-01   4.000000E-01   4.000000E-01   4.000000E-01   4.000000E-01   4.000000E-01   4.000000E-01   4.000000E-01   4.000000E-01   4.000000E-01   4.000000E-01   4.000000E-01   4.000000E-01   4.000000E-01   4.000000E-01   4.000000E-01   4.000000E-01   4.000000E-01   4.000000E-01   4.000000E-01   4.000000E-01   4.000000E-01   4.000000E-01   4.000000E-01   4.000000E-01   4.000000E-01   4.000000E-01   4.000000E-01   4.000000E-01   4.000000E-01   4.000000E-01   4.000000E-01   4.000000E-01   4.000000E-01   4.000000E-01   4.000000E-01   4.000000E-01   4.000000E-01   4.000000E-01   4.000000E-01   4.000000E-01   4.000000E-01   4.000000E-01   4.000000E-01   4.000000E-01   4.000000E-01   4.000000E-01   4.000000E-01   4.000000E-01   4.000000E-01   4.000000E-01   4.000000E-01   4.000000E-01   4.000000E-01   4.000000E-01   4.000000E-01   4.000000E-01   4.000000E-01   4.000000E-01   4.000000E-01   4.000000E-01   4.000000E-01   4.000000E-01   4.000000E-01   4.000000E-01   4.000000E-01   4.000000E-01   4.000000E-01   4.000000E-01   4.000000E-01   4.000000E-01   4.000000E-01   4.000000E-01   4.000000E-01   4.000000E-01   4.000000E-01   4.000000E-01   4.000000E-01   4.000000E-01   4.000000E-01   4.000000E-01   4.000000E-01   4.000000E-01   4.000000E-01   4.000000E-01   4.000000E-01   4.000000E-01   4.000000E-01   4.000000E-01   4.000000E-01   4.000000E-01   4.000000E-01   4.000000E-01   4.000000E-01   4.000000E-01   4.000000E-01   4.000000E-01   4.000000E-01   4.000000E-01   4.000000E-01   4.000000E-01   4.000000E-01   4.000000E-01   4.000000E-01   4.000000E-01   4.000000E-01   4.000000E-01   4.000000E-01   4.000000E-01   4.000000E-01   4.000000E-01   4.000000E-01   4.000000E-01   4.000000E-01   4.000000E-01   4.000000E-01   4.000000E-01   4.000000E-01   4.000000E-01   4.000000E-01   4.000000E-01   4.000000E-01   4.000000E-01   4.000000E-01   4.000000E-01   4.000000E-01   4.000000E-01   4.000000E-01   4.000000E-01   4.000000E-01   4.000000E-01   4.000000E-01   4.000000E-01   4.000000E-01   4.000000E-01   4.000000E-01   4.000000E-01   4.000000E-01   4.000000E-01   4.000000E-01   4.000000E-01   4.000000E-01   4.000000E-01   4.000000E-01   4.000000E-01   4.000000E-01   4.000000E-01   4.000000E-01   4.000000E-01   4.000000E-01   4.000000E-01   4.000000E-01   4.000000E-01   4.000000E-01   4.000000E-01   4.000000E-01   4.000000E-01   4.000000E-01   4.000000E-01   4.000000E-01   4.000000E-01   4.000000E-01   4.000000E-01   4.000000E-01   4.000000E-01   4.000000E-01   4.000000E-01   4.000000E-01   4.000000E-01   4.000000E-01   4.000000E-01   4.000000E-01   4.000000E-01   4.000000E-01   4.000000E-01   4.000000E-01   4.000000E-01   4.000000E-01   4.000000E-01   4.000000E-01   4.000000E-01   4.000000E-01   4.000000E-01   4.000000E-01   4.000000E-01   4.000000E-01   4.000000E-01   4.000000E-01   4.000000E-01   4.000000E-01   4.000000E-01   4.000000E-01   4.000000E-01   4.000000E-01   4.000000E-01   4.000000E-01   4.000000E-01   4.000000E-01   4.000000E-01   4.000000E-01   4.000000E-01   4.000000E-01   4.000000E-01   4.000000E-01   4.000000E-01   4.000000E-01   4.000000E-01   4.000000E-01   4.000000E-01   4.000000E-01   4.000000E-01   4.000000E-01   4.000000E-01   4.000000E-01   4.000000E-01   4.000000E-01   4.000000E-01   4.000000E-01   4.000000E-01   4.000000E-01   4.000000E-01   4.000000E-01   4.000000E-01   4.000000E-01   4.000000E-01   4.000000E-01   4.000000E-01   4.000000E-01   4.000000E-01   4.000000E-01   4.000000E-01   4.000000E-01   4.000000E-01   4.000000E-01   4.000000E-01   4.000000E-01   4.000000E-01   4.000000E-01   4.000000E-01   4.000000E-01   4.000000E-01   4.000000E-01   4.000000E-01   4.000000E-01   4.000000E-01   4.000000E-01   4.000000E-01   4.000000E-01   4.000000E-01   4.000000E-01   4.000000E-01   4.000000E-01   4.000000E-01   4.000000E-01   4.000000E-01   4.000000E-01   4.000000E-01   4.000000E-01   4.000000E-01   4.000000E-01   4.000000E-01   4.000000E-01   4.000000E-01   4.000000E-01   4.000000E-01   4.000000E-01   4.000000E-01   4.000000E-01   4.000000E-01   4.000000E-01   4.000000E-01   4.000000E-01   4.000000E-01   4.000000E-01   4.000000E-01   4.000000E-01   4.000000E-01   4.000000E-01   4.000000E-01   4.000000E-01   4.000000E-01   4.000000E-01   4.000000E-01   4.000000E-01   4.000000E-01   4.000000E-01   4.000000E-01   4.000000E-01   4.000000E-01   4.000000E-01   4.000000E-01   4.000000E-01   4.000000E-01   4.000000E-01   4.000000E-01   4.000000E-01   4.000000E-01   4.000000E-01   4.000000E-01   4.000000E-01   4.000000E-01   4.000000E-01   4.000000E-01   4.000000E-01   4.000000E-01   4.000000E-01   4.000000E-01   4.000000E-01   4.000000E-01   4.000000E-01   4.000000E-01   4.000000E-01   4.000000E-01   4.000000E-01   4.000000E-01   4.000000E-01   4.000000E-01   4.000000E-01   4.000000E-01   4.000000E-01   4.000000E-01   4.000000E-01   4.000000E-01   4.000000E-01   4.000000E-01   4.000000E-01   4.000000E-01   4.000000E-01   4.000000E-01   4.000000E-01   4.000000E-01   4.000000E-01   4.000000E-01   4.000000E-01   4.000000E-01   4.000000E-01   4.000000E-01   4.000000E-01   4.000000E-01   4.000000E-01   4.000000E-01   4.000000E-01   4.000000E-01   4.000000E-01   4.000000E-01   4.000000E-01   4.000000E-01   4.000000E-01   4.000000E-01   4.000000E-01   4.000000E-01   4.000000E-01   4.000000E-01   4.000000E-01   4.000000E-01   4.000000E-01   4.000000E-01   4.000000E-01   4.000000E-01   4.000000E-01   4.000000E-01   4.000000E-01   4.000000E-01   4.000000E-01   4.000000E-01   4.000000E-01   4.000000E-01   4.000000E-01   4.000000E-01   4.000000E-01   4.000000E-01   4.000000E-01   4.000000E-01   4.000000E-01   4.000000E-01   4.000000E-01   4.000000E-01   4.000000E-01   4.000000E-01   4.000000E-01   4.000000E-01   4.000000E-01   4.000000E-01   4.000000E-01   4.000000E-01   4.000000E-01   4.000000E-01   4.000000E-01   4.000000E-01   4.000000E-01   4.000000E-01   4.000000E-01   4.000000E-01   4.000000E-01   4.000000E-01   4.000000E-01   4.000000E-01   4.000000E-01   4.000000E-01   4.000000E-01   4.000000E-01   4.000000E-01   4.000000E-01   4.000000E-01   4.000000E-01   4.000000E-01   4.000000E-01   4.000000E-01   4.000000E-01   4.000000E-01   4.000000E-01   4.000000E-01   4.000000E-01   4.000000E-01   4.000000E-01   4.000000E-01   4.000000E-01   4.000000E-01   4.000000E-01   4.000000E-01   4.000000E-01   4.000000E-01   4.000000E-01   4.000000E-01   4.000000E-01   4.000000E-01   4.000000E-01   4.000000E-01   4.000000E-01   4.000000E-01   4.000000E-01   4.000000E-01   4.000000E-01   4.000000E-01   4.000000E-01   4.000000E-01   4.000000E-01   4.000000E-01   4.000000E-01   4.000000E-01   4.000000E-01   4.000000E-01   4.000000E-01   4.000000E-01   4.000000E-01   4.000000E-01   4.000000E-01   4.000000E-01   4.000000E-01   4.000000E-01   4.000000E-01   4.000000E-01   4.000000E-01   4.000000E-01   4.000000E-01   4.000000E-01   4.000000E-01   4.000000E-01   4.000000E-01   4.000000E-01   4.000000E-01   4.000000E-01   4.000000E-01   4.000000E-01   4.000000E-01   4.000000E-01   4.000000E-01   4.000000E-01   4.000000E-01   4.000000E-01   4.000000E-01   4.000000E-01   4.000000E-01   4.000000E-01   4.000000E-01   4.000000E-01   4.000000E-01   4.000000E-01   4.000000E-01   4.000000E-01   4.000000E-01   4.000000E-01   4.000000E-01   4.000000E-01   4.000000E-01   4.000000E-01   4.000000E-01   4.000000E-01   4.000000E-01   4.000000E-01   4.000000E-01   4.000000E-01   4.000000E-01   4.000000E-01   4.000000E-01   4.000000E-01   4.000000E-01   4.000000E-01   4.000000E-01   4.000000E-01   4.000000E-01   4.000000E-01   4.000000E-01   4.000000E-01   4.000000E-01   4.000000E-01   4.000000E-01   4.000000E-01   4.000000E-01   4.000000E-01   4.000000E-01   4.000000E-01   4.000000E-01   4.000000E-01   4.000000E-01   4.000000E-01   4.000000E-01   4.000000E-01   4.000000E-01   4.000000E-01   4.000000E-01   4.000000E-01   4.000000E-01   4.000000E-01   4.000000E-01   4.000000E-01   4.000000E-01   4.000000E-01   4.000000E-01   4.000000E-01   4.000000E-01   4.000000E-01   4.000000E-01   4.000000E-01   4.000000E-01   4.000000E-01   4.000000E-01   4.000000E-01   4.000000E-01   4.000000E-01   4.000000E-01   4.000000E-01   4.000000E-01   4.000000E-01   4.000000E-01   4.000000E-01   4.000000E-01   4.000000E-01   4.000000E-01   4.000000E-01   4.000000E-01   4.000000E-01   4.000000E-01   4.000000E-01   4.000000E-01   4.000000E-01   4.000000E-01   4.000000E-01   4.000000E-01   4.000000E-01   4.000000E-01   4.000000E-01   4.000000E-01   4.000000E-01   4.000000E-01   4.000000E-01   4.000000E-01   4.000000E-01   4.000000E-01   4.000000E-01   4.000000E-01   4.000000E-01   4.000000E-01   4.000000E-01   4.000000E-01   4.000000E-01   4.000000E-01   4.000000E-01   4.000000E-01   4.000000E-01   4.000000E-01   4.000000E-01   4.000000E-01   4.000000E-01   4.000000E-01   4.000000E-01   4.000000E-01   4.000000E-01   4.000000E-01   4.000000E-01   4.000000E-01   4.000000E-01   4.000000E-01   4.000000E-01   4.000000E-01   4.000000E-01   4.000000E-01   4.000000E-01   4.000000E-01   4.000000E-01   4.000000E-01   4.000000E-01   4.000000E-01   4.000000E-01   4.000000E-01   4.000000E-01   4.000000E-01   4.000000E-01   4.000000E-01   4.000000E-01   4.000000E-01   4.000000E-01   4.000000E-01   4.000000E-01   4.000000E-01   4.000000E-01   4.000000E-01   4.000000E-01   4.000000E-01   4.000000E-01   4.000000E-01   4.000000E-01   4.000000E-01   4.000000E-01   4.000000E-01   4.000000E-01   4.000000E-01   4.000000E-01   4.000000E-01   4.000000E-01   4.000000E-01   4.000000E-01   4.000000E-01   4.000000E-01   4.000000E-01   4.000000E-01   4.000000E-01   4.000000E-01   4.000000E-01   4.000000E-01   4.000000E-01   4.000000E-01   4.000000E-01   4.000000E-01   4.000000E-01   4.000000E-01   4.000000E-01   4.000000E-01   4.000000E-01   4.000000E-01   4.000000E-01   4.000000E-01   4.000000E-01   4.000000E-01   4.000000E-01   4.000000E-01   4.000000E-01   4.000000E-01   4.000000E-01   4.000000E-01   4.000000E-01   4.000000E-01   4.000000E-01   4.000000E-01   4.000000E-01   4.000000E-01   4.000000E-01   4.000000E-01   4.000000E-01   4.000000E-01   4.000000E-01   4.000000E-01   4.000000E-01   4.000000E-01   4.000000E-01   4.000000E-01   4.000000E-01   4.000000E-01   4.000000E-01   4.000000E-01   4.000000E-01   4.000000E-01   4.000000E-01   4.000000E-01   4.000000E-01   4.000000E-01   4.000000E-01   4.000000E-01   4.000000E-01   4.000000E-01   4.000000E-01   4.000000E-01   4.000000E-01   4.000000E-01   4.000000E-01   4.000000E-01   4.000000E-01   4.000000E-01   4.000000E-01   4.000000E-01   4.000000E-01   4.000000E-01   4.000000E-01   4.000000E-01   4.000000E-01   4.000000E-01   4.000000E-01   4.000000E-01   4.000000E-01   4.000000E-01   4.000000E-01   4.000000E-01   4.000000E-01   4.000000E-01   4.000000E-01   4.000000E-01   4.000000E-01   4.000000E-01   4.000000E-01   4.000000E-01   4.000000E-01   4.000000E-01   4.000000E-01   4.000000E-01   4.000000E-01   4.000000E-01   4.000000E-01   4.000000E-01   4.000000E-01   4.000000E-01   4.000000E-01   4.000000E-01   4.000000E-01   4.000000E-01   4.000000E-01   4.000000E-01   4.000000E-01   4.000000E-01   4.000000E-01   4.000000E-01   4.000000E-01   4.000000E-01   4.000000E-01   4.000000E-01   4.000000E-01   4.000000E-01   4.000000E-01   4.000000E-01   4.000000E-01   4.000000E-01   4.000000E-01   4.000000E-01   4.000000E-01   4.000000E-01   4.000000E-01   4.000000E-01   4.000000E-01   4.000000E-01   4.000000E-01   4.000000E-01   4.000000E-01   4.000000E-01   4.000000E-01   4.000000E-01   4.000000E-01   4.000000E-01   4.000000E-01   4.000000E-01   4.000000E-01   4.000000E-01   4.000000E-01   4.000000E-01   4.000000E-01   4.000000E-01   4.000000E-01   4.000000E-01   4.000000E-01   4.000000E-01   4.000000E-01   4.000000E-01   4.000000E-01   4.000000E-01   4.000000E-01   4.000000E-01   4.000000E-01   4.000000E-01   4.000000E-01   4.000000E-01   4.000000E-01   4.000000E-01   4.000000E-01   4.000000E-01   4.000000E-01   4.000000E-01   4.000000E-01   4.000000E-01   4.000000E-01   4.000000E-01   4.000000E-01   4.000000E-01   4.000000E-01   4.000000E-01   4.000000E-01   4.000000E-01   4.000000E-01   4.000000E-01   4.000000E-01   4.000000E-01   4.000000E-01   4.000000E-01   4.000000E-01   4.000000E-01   4.000000E-01   4.000000E-01   4.000000E-01   4.000000E-01   4.000000E-01   4.000000E-01   4.000000E-01   4.000000E-01   4.000000E-01   4.000000E-01   4.000000E-01   4.000000E-01   4.000000E-01   4.000000E-01   4.000000E-01   4.000000E-01   4.000000E-01   4.000000E-01   4.000000E-01   4.000000E-01   4.000000E-01   4.000000E-01   4.000000E-01   4.000000E-01   4.000000E-01   4.000000E-01   4.000000E-01   4.000000E-01   4.000000E-01   4.000000E-01   4.000000E-01   4.000000E-01   4.000000E-01   4.000000E-01   4.000000E-01   4.000000E-01   4.000000E-01   4.000000E-01   4.000000E-01   4.000000E-01   4.000000E-01   4.000000E-01   4.000000E-01   4.000000E-01   4.000000E-01   4.000000E-01   4.000000E-01   4.000000E-01   4.000000E-01   4.000000E-01   4.000000E-01   4.000000E-01   4.000000E-01   4.000000E-01   4.000000E-01   4.000000E-01   4.000000E-01   4.000000E-01   4.000000E-01   4.000000E-01   4.000000E-01   4.000000E-01   4.000000E-01   4.000000E-01   4.000000E-01   4.000000E-01   4.000000E-01   4.000000E-01   4.000000E-01   4.000000E-01   4.000000E-01   4.000000E-01   4.000000E-01   4.000000E-01   4.000000E-01   4.000000E-01   4.000000E-01   4.000000E-01   4.000000E-01   4.000000E-01   4.000000E-01   4.000000E-01   4.000000E-01   4.000000E-01   4.000000E-01   4.000000E-01   4.000000E-01   4.000000E-01   4.000000E-01   4.000000E-01   4.000000E-01   4.000000E-01   4.000000E-01   4.000000E-01   4.000000E-01   4.000000E-01   4.000000E-01   4.000000E-01   4.000000E-01   4.000000E-01   4.000000E-01   4.000000E-01   4.000000E-01   4.000000E-01   4.000000E-01   4.000000E-01   4.000000E-01   4.000000E-01   4.000000E-01   4.000000E-01   4.000000E-01   4.000000E-01   4.000000E-01   4.000000E-01   4.000000E-01   4.000000E-01   4.000000E-01   4.000000E-01   4.000000E-01   4.000000E-01   4.000000E-01   4.000000E-01   4.000000E-01   4.000000E-01   4.000000E-01   4.000000E-01   4.000000E-01   4.000000E-01   4.000000E-01   4.000000E-01   4.000000E-01   4.000000E-01   4.000000E-01   4.000000E-01   4.000000E-01   4.000000E-01   4.000000E-01   4.000000E-01   4.000000E-01   4.000000E-01   4.000000E-01   4.000000E-01   4.000000E-01   4.000000E-01   4.000000E-01   4.000000E-01   4.000000E-01   4.000000E-01   4.000000E-01   4.000000E-01   4.000000E-01   4.000000E-01   4.000000E-01   4.000000E-01   4.000000E-01   4.000000E-01   4.000000E-01   4.000000E-01   4.000000E-01   4.000000E-01   4.000000E-01   4.000000E-01   4.000000E-01   4.000000E-01   4.000000E-01   4.000000E-01   4.000000E-01   4.000000E-01   4.000000E-01   4.000000E-01   4.000000E-01   4.000000E-01   4.000000E-01   4.000000E-01   4.000000E-01   4.000000E-01   4.000000E-01   4.000000E-01   4.000000E-01   4.000000E-01   4.000000E-01   4.000000E-01   4.000000E-01   4.000000E-01   4.000000E-01   4.000000E-01   4.000000E-01   4.000000E-01   4.000000E-01   4.000000E-01   4.000000E-01   4.000000E-01   4.000000E-01   4.000000E-01   4.000000E-01   4.000000E-01   4.000000E-01   4.000000E-01   4.000000E-01   4.000000E-01   4.000000E-01   4.000000E-01   4.000000E-01   4.000000E-01   4.000000E-01   4.000000E-01   4.000000E-01   4.000000E-01   4.000000E-01   4.000000E-01   4.000000E-01   4.000000E-01   4.000000E-01   4.000000E-01   4.000000E-01   4.000000E-01   4.000000E-01   4.000000E-01   4.000000E-01   4.000000E-01   4.000000E-01   4.000000E-01   4.000000E-01   4.000000E-01   4.000000E-01   4.000000E-01   4.000000E-01   4.000000E-01   4.000000E-01   4.000000E-01   4.000000E-01   4.000000E-01   4.000000E-01   4.000000E-01   4.000000E-01   4.000000E-01   4.000000E-01   4.000000E-01   4.000000E-01   4.000000E-01   4.000000E-01   4.000000E-01   4.000000E-01   4.000000E-01   4.000000E-01   4.000000E-01   4.000000E-01   4.000000E-01   4.000000E-01   4.000000E-01   4.000000E-01   4.000000E-01   4.000000E-01   4.000000E-01   4.000000E-01   4.000000E-01   4.000000E-01   4.000000E-01   4.000000E-01   4.000000E-01   4.000000E-01   4.000000E-01   4.000000E-01   4.000000E-01   4.000000E-01   4.000000E-01   4.000000E-01   4.000000E-01   4.000000E-01   4.000000E-01   4.000000E-01   4.000000E-01   4.000000E-01   4.000000E-01   4.000000E-01   4.000000E-01   4.000000E-01   4.000000E-01   4.000000E-01   4.000000E-01   4.000000E-01   4.000000E-01   4.000000E-01   4.000000E-01   4.000000E-01   4.000000E-01   4.000000E-01   4.000000E-01   4.000000E-01   4.000000E-01   4.000000E-01   4.000000E-01   4.000000E-01   4.000000E-01   4.000000E-01   4.000000E-01   4.000000E-01   4.000000E-01   4.000000E-01   4.000000E-01   4.000000E-01   4.000000E-01   4.000000E-01   4.000000E-01   4.000000E-01   4.000000E-01   4.000000E-01   4.000000E-01   4.000000E-01   4.000000E-01   4.000000E-01   4.000000E-01   4.000000E-01   4.000000E-01   4.000000E-01   4.000000E-01   4.000000E-01   4.000000E-01   4.000000E-01   4.000000E-01   4.000000E-01   4.000000E-01   4.000000E-01   4.000000E-01   4.000000E-01   4.000000E-01   4.000000E-01   4.000000E-01   4.000000E-01   4.000000E-01   4.000000E-01   4.000000E-01   4.000000E-01   4.000000E-01   4.000000E-01   4.000000E-01   4.000000E-01   4.000000E-01   4.000000E-01   4.000000E-01   4.000000E-01   4.000000E-01   4.000000E-01   4.000000E-01   4.000000E-01   4.000000E-01   4.000000E-01   4.000000E-01   4.000000E-01   4.000000E-01   4.000000E-01   4.000000E-01   4.000000E-01   4.000000E-01   4.000000E-01   4.000000E-01   4.000000E-01   4.000000E-01   4.000000E-01   4.000000E-01   4.000000E-01   4.000000E-01   4.000000E-01   4.000000E-01   4.000000E-01   4.000000E-01   4.000000E-01   4.000000E-01   4.000000E-01   4.000000E-01   4.000000E-01   4.000000E-01   4.000000E-01   4.000000E-01   4.000000E-01   4.000000E-01   4.000000E-01   4.000000E-01   4.000000E-01   4.000000E-01   4.000000E-01   4.000000E-01   4.000000E-01   4.000000E-01   4.000000E-01   4.000000E-01   4.000000E-01   4.000000E-01   4.000000E-01   4.000000E-01   4.000000E-01   4.000000E-01   4.000000E-01   4.000000E-01   4.000000E-01   4.000000E-01   4.000000E-01   4.000000E-01   4.000000E-01   4.000000E-01   4.000000E-01   4.000000E-01   4.000000E-01   4.000000E-01   4.000000E-01   4.000000E-01   4.000000E-01   4.000000E-01   4.000000E-01   4.000000E-01   4.000000E-01   4.000000E-01   4.000000E-01   4.000000E-01   4.000000E-01   4.000000E-01   4.000000E-01   4.000000E-01   4.000000E-01   4.000000E-01   4.000000E-01   4.000000E-01   4.000000E-01   4.000000E-01   4.000000E-01   4.000000E-01   4.000000E-01   4.000000E-01   4.000000E-01   4.000000E-01   4.000000E-01   4.000000E-01   4.000000E-01   4.000000E-01   4.000000E-01   4.000000E-01   4.000000E-01   4.000000E-01   4.000000E-01   4.000000E-01   4.000000E-01   4.000000E-01   4.000000E-01   4.000000E-01   4.000000E-01   4.000000E-01   4.000000E-01   4.000000E-01   4.000000E-01   4.000000E-01   4.000000E-01   4.000000E-01   4.000000E-01   4.000000E-01   4.000000E-01   4.000000E-01   4.000000E-01   4.000000E-01   4.000000E-01   4.000000E-01   4.000000E-01   4.000000E-01   