<?xml version="1.0"?>
<!-- Time =  1.6005576260280385E+00s -->
<VTKFile type="PolyData" version="0.1" byte_order="LittleEndian">
<PolyData>
<Piece NumberOfPoints="0000002400" NumberOfVerts="0" NumberOfLines="0" NumberOfStrips="0" NumberOfPolys="0">
<Points>
<DataArray type="Float32" Name="Position" NumberOfComponents="3" format="ascii">
  1.021448E+00   2.603090E-01   2.288056E-01   5.858464E+00   4.024005E+00   9.362518E-01   4.459946E+00   1.703118E+00   1.881008E+00   9.680599E+00   2.421268E-01   7.223380E-01   1.506071E+00   7.256815E-01   2.547999E+00   7.834160E+00   8.771748E+00   3.977750E+00   5.150781E+00   7.071892E-01   2.502131E-01   8.493649E+00   6.485457E+00   4.485879E-01   1.258318E+01   1.166056E+00   1.856450E+00   1.026241E+01   1.244480E+01   2.365369E+00   1.443064E+00   1.500589E+00   2.938669E+00   7.841600E+00   4.208897E-01   3.373203E+00   5.861012E+00   2.008340E-01   2.071005E+00   1.868790E+00   3.465993E+00   2.988403E+00   1.065030E+01   9.651343E-01   4.639051E+00   1.314169E+01   8.130392E+00   7.915459E-01   1.469599E+01   6.878940E+00   2.570954E+00   1.798842E+00   1.144923E+00   6.640612E-01   7.302023E+00   3.084355E+00   1.651437E+00   4.075881E+00   6.814621E-01   2.761204E+00   1.314150E+01   5.791960E-01   2.986210E+00   8.026331E+00   1.344979E+00   2.451755E+00   4.848746E+00   5.387946E+00   3.123859E+00   5.090635E+00   5.480200E-01   4.574246E+00   1.707635E+00   9.077589E+00   3.326615E+00   8.119389E+00   8.288706E+00   6.221476E-01   5.040462E+00   3.674325E+00   2.093026E-01   1.198079E+01   1.399705E+01   1.668498E+00   1.444451E+01   9.251444E+00   2.835466E-01   4.341244E+00   9.607803E-01   2.072178E-01   1.001083E+01   1.063443E+00   3.974769E+00   9.542875E-01   2.173908E-01   1.684502E+00   5.727404E-01   5.188830E-01   1.893640E+00   7.528248E+00   1.819122E+00   1.306954E+00   2.949250E+00   1.622993E+00   1.089015E+00   8.160843E+00   2.188313E+01   4.513956E+00   6.407700E+00   1.559268E+00   3.658745E+00   3.571295E+00   2.445002E-01   1.980119E+00   8.962581E+00   1.359690E+01   1.910656E+00   5.178666E+00   6.875285E+00   4.309602E-01   1.604434E+00   4.046780E-01   3.613873E+00   6.327096E+00   3.103084E+00   1.496074E+00   3.958055E+00   1.457624E+00   3.839686E+00   3.478608E+00   1.341353E+01   3.341781E+00   1.063240E+01   6.747505E+00   1.153257E+00   1.124087E+01   4.911089E+00   1.596276E+00   1.399383E+00   2.875634E-01   1.483069E+00   4.967594E+00   2.282731E+01   4.849312E+00   1.397271E+01   1.169509E+00   4.628921E+00   5.949601E+00   5.315713E-01   2.676521E+00   6.554332E+00   2.173985E-01   1.321707E+00   1.274877E+01   2.835595E-01   3.071150E+00   9.432306E+00   1.975153E+00   4.390990E+00   6.878779E+00   2.287235E+00   1.643711E+00   3.504708E+00   7.503437E-01   2.579184E+00   1.144874E+01   2.002605E-01   1.721594E+00   2.447489E+00   8.382934E-01   9.661551E-01   1.265450E+01   1.633010E+00   4.520715E-01   7.038073E+00   9.848948E+00   3.546929E+00   1.152766E+01   1.089094E+01   2.535206E+00   2.727087E+00   2.057364E-01   4.986023E-01   3.012308E+00   2.796572E-01   2.067813E-01   6.149826E+00   2.191718E-01   2.006638E-01   6.729957E+00   1.079137E+01   3.389156E-01   6.529668E+00   1.483134E+00   1.617751E+00   1.133517E+01   1.201479E+01   4.114226E+00   3.237905E+00   6.581151E-01   8.121334E-01   4.428137E+00   2.552359E-01   9.018246E-01   1.489499E+00   8.967090E-01   3.533686E+00   7.477841E+00   8.512218E+00   2.627539E+00   6.627429E+00   1.653434E+00   4.489366E+00   1.262432E+01   3.676832E+00   3.114771E+00   6.200621E+00   2.568153E+00   4.652135E+00   6.807228E-01   6.685368E-01   2.333323E+00   1.939756E+00   7.955242E-01   4.207047E+00   1.184004E+01   1.724427E+01   2.810045E+00   9.291981E+00   7.560015E+00   3.880895E+00   1.407005E+01   1.683966E+00   1.341168E+00   7.096466E+00   1.102689E+01   1.828693E+00   1.128718E+01   3.978489E+00   2.688341E-01   1.204646E+01   1.023442E+01   1.427280E+00   1.018203E+01   1.086239E+01   2.862664E+00   9.700384E+00   1.665797E+01   2.602820E+00   1.351640E+01   1.204458E+00   3.222959E+00   1.046669E+00   2.403048E-01   1.215662E+00   2.133062E+00   2.053547E-01   2.970967E+00   1.442632E+01   1.520600E+01   4.171171E-01   5.325166E+00   1.216787E+01   4.914536E+00   7.504704E+00   6.599005E-01   5.401650E-01   3.478115E+00   1.710225E+00   2.130864E+00   1.356798E+01   1.422684E+01   2.195232E+00   6.556636E+00   2.058103E-01   1.920226E+00   3.930949E+00   8.878368E-01   5.730671E-01   7.251608E+00   1.519802E+01   4.618409E+00   5.663421E+00   3.159095E+00   2.638647E+00   6.528686E+00   3.827666E+00   5.491177E-01   6.020053E+00   2.214573E+00   6.117089E-01   2.409600E+00   2.010244E-01   2.260385E-01   1.379743E+01   2.931395E-01   1.973830E-01   8.610880E+00   1.120342E+00   4.452213E+00   6.651917E+00   7.852907E-01   3.333399E+00   6.519500E+00   3.171147E+00   4.520003E+00   1.664977E+00   1.124140E+01   3.152955E+00   3.972787E+00   2.196136E-01   3.371102E+00   2.207013E-01   4.613504E-01   4.808692E+00   1.235054E+00   6.417081E+00   1.122528E+00   2.179637E-01   7.625399E+00   2.248663E+00   5.341557E+00   2.187583E-01   5.943674E-01   5.432716E+00   1.002457E+01   2.723075E+00   3.241176E+00   2.120193E-01   2.269707E+00   1.311130E+01   1.190534E+00   6.098670E-01   2.034244E+00   1.185664E+00   3.651438E+00   3.737383E+00   7.006360E-01   3.090864E+00   1.750443E+00   1.993669E-01   1.709028E+00   7.154937E+00   7.511436E+00   1.137849E+00   1.453389E+01   5.616353E-01   2.018100E+00   7.130786E+00   1.950354E+01   3.002960E+00   3.657496E+00   6.394878E+00   1.974345E+00   7.086414E+00   3.621083E+00   5.425753E-01   3.700263E+00   2.886368E-01   3.017512E+00   1.475294E+01   3.293228E-01   4.040322E+00   3.394361E+00   1.041590E+00   1.182651E+00   2.524273E+00   1.045337E+00   1.563941E+00   1.148316E+01   6.738947E+00   4.487018E+00   5.457509E+00   5.018402E-01   1.115669E+00   1.777974E+00   2.244243E-01   3.953414E+00   8.469571E+00   9.719551E+00   3.128193E-01   1.406340E+01   1.090496E+00   3.744032E+00   9.071412E+00   2.120401E-01   7.469555E-01   6.720753E+00   3.688820E+00   2.513687E+00   2.924129E+00   5.036635E-01   2.224060E+00   4.060058E+00   4.014899E-01   1.041553E+00   3.456572E+00   8.673700E-01   4.353252E+00   9.382523E+00   1.403116E+01   4.028787E+00   6.136086E+00   1.146201E+01   3.369980E+00   6.316520E+00   3.146127E+00   3.726177E+00   8.731063E+00   2.674814E+01   7.150989E-01   1.193076E+01   1.499225E+00   4.563639E+00   3.467504E+00   4.481719E-01   5.581885E-01   5.503433E+00   3.476516E+00   4.722557E-01   9.894747E+00   3.510907E-01   1.250905E+00   1.203826E+01   1.126155E+01   4.239470E+00   4.826538E+00   3.042858E-01   6.227575E-01   5.824170E+00   1.700207E+00   4.995089E-01   7.133000E+00   1.312776E+01   3.114398E+00   1.403968E+01   5.830390E-01   9.411547E-01   1.422766E+00   2.052456E-01   2.238176E-01   3.238100E+00   7.259237E-01   2.341594E-01   1.195133E+01   4.007307E-01   2.376677E+00   5.756781E+00   2.348958E-01   2.470912E+00   1.363744E+00   6.931044E+00   1.403971E+00   1.249385E+01   4.835576E+00   3.415452E+00   3.664883E+00   7.078781E-01   1.399446E+00   3.764133E+00   6.630095E-01   3.986421E+00   5.450047E+00   7.429265E+00   2.244673E+00   8.948819E+00   1.360024E+00   4.867074E+00   2.626772E+00   1.041452E+00   2.147803E+00   9.548777E+00   7.358035E-01   1.943646E+00   1.062777E+01   3.762224E-01   2.686806E+00   5.870108E+00   3.478486E+00   1.016820E+00   6.905688E+00   2.381719E-01   3.809500E+00   3.389486E+00   1.393159E+00   4.876458E+00   5.946122E+00   1.027964E+00   2.291466E+00   2.588941E-01   6.915843E-01   2.051634E-01   2.237627E-01   3.686824E-01   2.185608E+00   6.303370E-01   2.695853E-01   2.301504E+00   5.662750E+00   7.422294E+00   4.100786E-01   2.377788E-01   3.085718E+00   2.297166E+00   1.371980E+01   2.015210E-01   2.033956E+00   4.609579E+00   2.309267E-01   3.089084E+00   5.946330E+00   1.233434E+00   3.118704E-01   5.221622E+00   4.689943E+00   2.191714E+00   7.729519E+00   3.340443E+00   1.042614E+00   7.498790E+00   5.291227E-01   4.502640E+00   4.188685E+00   3.781899E-01   5.410943E-01   4.954432E+00   6.821153E+00   1.756930E+00   9.177638E+00   1.701501E+00   3.909646E+00   7.625760E+00   1.053995E+00   4.943865E+00   2.362085E+00   2.027168E-01   1.327945E+00   1.405902E+01   9.811165E-01   2.890083E+00   9.491160E-01   9.313788E-01   1.360102E+00   1.114629E+01   1.614443E+01   7.835850E-01   9.923011E+00   2.479517E-01   2.990445E+00   6.463596E+00   2.327132E-01   4.893517E+00   1.174495E+01   9.049215E+00   3.933109E+00   6.290973E+00   2.093488E-01   2.259208E+00   3.526042E+00   3.007987E+00   7.731364E-01   3.739747E+00   1.424874E+00   4.188847E+00   6.481977E+00   1.774273E+00   3.432495E-01   1.171381E+00   6.020096E-01   9.483973E-01   1.099943E+01   1.590354E+00   4.168525E+00   4.257208E+00   1.394893E+00   2.097859E+00   1.012768E+00   2.226685E-01   8.140877E-01   1.320939E+01   9.379335E-01   2.191940E+00   1.215965E+01   1.792985E+00   3.927888E+00   4.458340E+00   1.145470E+01   4.597930E+00   5.914166E+00   1.859283E+00   1.088523E+00   1.343505E+01   4.772099E+00   2.702293E-01   1.380310E+01   3.650956E+00   1.366017E+00   1.254384E+01   9.642411E+00   4.848442E+00   1.236652E+01   1.227804E+00   4.927205E+00   1.622990E+00   1.942189E+00   1.129149E+00   2.134167E+00   2.012145E-01   6.725006E-01   1.176696E+01   7.739749E+00   4.699540E+00   1.423144E+01   7.510937E-01   6.287497E-01   1.221047E+01   2.160409E+00   8.574734E-01   2.848361E+00   4.706838E-01   7.991763E-01   8.967423E-01   1.334007E+00   1.290078E+00   4.791313E+00   2.051122E+01   4.730902E+00   3.817596E+00   2.538054E+00   3.158205E+00   2.931133E+00   1.992015E-01   1.479559E+00   6.062531E+00   6.502204E+00   2.906722E+00   1.174572E+01   2.886805E-01   7.762367E-01   4.760377E+00   9.647077E+00   2.838695E+00   8.785645E+00   2.056713E+00  
[...]
<PointData Scalars="Diameter" Vectors="Velocity">
<DataArray type="Float32" Name="Diameter" format="ascii">
  4.000000E-01   4.000000E-01   4.000000E-01   4.000000E-01   4.000000E-01   4.000000E-01   4.000000E-01   4.000000E-01   4.000000E-01   4.000000E-01   4.000000E-01   4.000000E-01   4.000000E-01   4.000000E-01   4.000000E-01   4.000000E-01   4.000000E-01   4.000000E-01   4.000000E-01   4.000000E-01   4.000000E-01   4.000000E-01   4.000000E-01   4.000000E-01   4.000000E-01   4.000000E-01   4.000000E-01   4.000000E-01   4.000000E-01   4.000000E-01   4.000000E-01   4.000000E-01   4.000000E-01   4.000000E-01   4.000000E-01   4.000000E-01   4.000000E-01   4.000000E-01   4.000000E-01   4.000000E-01   4.000000E-01   4.000000E-01   4.000000E-01   4.000000E-01   4.000000E-01   4.000000E-01   4.000000E-01   4.000000E-01   4.000000E-01   4.000000E-01   4.000000E-01   4.000000E-01   4.000000E-01   4.000000E-01   4.000000E-01   4.000000E-01   4.000000E-01   4.000000E-01   4.000000E-01   4.000000E-01   4.000000E-01   4.000000E-01   4.000000E-01   4.000000E-01   4.000000E-01   4.000000E-01   4.000000E-01   4.000000E-01   4.000000E-01   4.000000E-01   4.000000E-01   4.000000E-01   4.000000E-01   4.000000E-01   4.000000E-01   4.000000E-01   4.000000E-01   4.000000E-01   4.000000E-01   4.000000E-01   4.000000E-01   4.000000E-01   4.000000E-01   4.000000E-01   4.000000E-01   4.000000E-01   4.000000E-01   4.000000E-01   4.000000E-01   4.000000E-01   4.000000E-01   4.000000E-01   4.000000E-01   4.000000E-01   4.000000E-01   4.000000E-01   4.000000E-01   4.000000E-01   4.000000E-01   4.000000E-01   4.000000E-01   4.000000E-01   4.000000E-01   4.000000E-01   4.000000E-01   4.000000E-01   4.000000E-01   4.000000E-01   4.000000E-01   4.000000E-01   4.000000E-01   4.000000E-01   4.000000E-01   4.000000E-01   4.000000E-01   4.000000E-01   4.000000E-01   4.000000E-01   4.000000E-01   4.000000E-01   4.000000E-01   4.000000E-01   4.000000E-01   4.000000E-01   4.000000E-01   4.000000E-01   4.000000E-01   4.000000E-01   4.000000E-01   4.000000E-01   4.000000E-01   4.000000E-01   4.000000E-01   4.000000E-01   4.000000E-01   4.000000E-01   4.000000E-01   4.000000E-01   4.000000E-01   4.000000E-01   4.000000E-01   4.000000E-01   4.000000E-01   4.000000E-01   4.000000E-01   4.000000E-01   4.000000E-01   4.000000E-01   4.000000E-01   4.000000E-01   4.000000E-01   4.000000E-01   4.000000E-01   4.000000E-01   4.000000E-01   4.000000E-01   4.000000E-01   4.000000E-01   4.000000E-01   4.000000E-01   4.000000E-01   4.000000E-01   4.000000E-01   4.000000E-01   4.000000E-01   4.000000E-01   4.000000E-01   4.000000E-01   4.000000E-01   4.000000E-01   4.000000E-01   4.000000E-01   4.000000E-01   4.000000E-01   4.000000E-01   4.000000E-01   4.000000E-01   4.000000E-01   4.000000E-01   4.000000E-01   4.000000E-01   4.000000E-01   4.000000E-01   4.000000E-01   4.000000E-01   4.000000E-01   4.000000E-01   4.000000E-01   4.000000E-01   4.000000E-01   4.000000E-01   4.000000E-01   4.000000E-01   4.000000E-01   4.000000E-01   4.000000E-01   4.000000E-01   4.000000E-01   4.000000E-01   4.000000E-01   4.000000E-01   4.000000E-01   4.000000E-01   4.000000E-01   4.000000E-01   4.000000E-01   4.000000E-01   4.000000E-01   4.000000E-01   4.000000E-01   4.000000E-01   4.000000E-01   4.000000E-01   4.000000E-01   4.000000E-01   4.000000E-01   4.000000E-01   4.000000E-01   4.000000E-01   4.000000E-01   4.000000E-01   4.000000E-01   4.000000E-01   4.000000E-01   4.000000E-01   4.000000E-01   4.000000E-01   4.000000E-01   4.000000E-01   4.000000E-01   4.000000E-01   4.000000E-01   4.000000E-01   4.000000E-01   4.000000E-01   4.000000E-01   4.000000E-01   4.000000E-01   4.000000E-01   4.000000E-01   4.000000E-01   4.000000E-01   4.000000E-01   4.000000E-01   4.000000E-01   4.000000E-01   4.000000E-01   4.000000E-01   4.000000E-01   4.000000E-01   4.000000E-01   4.000000E-01   4.000000E-01   4.000000E-01   4.000000E-01   4.000000E-01   4.000000E-01   4.000000E-01   4.000000E-01   4.000000E-01   4.000000E-01   4.000000E-01   4.000000E-01   4.000000E-01   4.000000E-01   4.000000E-01   4.000000E-01   4.000000E-01   4.000000E-01   4.000000E-01   4.000000E-01   4.000000E-01   4.000000E-01   4.000000E-01   4.000000E-01   4.000000E-01   4.000000E-01   4.000000E-01   4.000000E-01   4.000000E-01   4.000000E-01   4.000000E-01   4.000000E-01   4.000000E-01   4.000000E-01   4.000000E-01   4.000000E-01   4.000000E-01   4.000000E-01   4.000000E-01   4.000000E-01   4.000000E-01   4.000000E-01   4.000000E-01   4.000000E-01   4.000000E-01   4.000000E-01   4.000000E-01   4.000000E-01   4.000000E-01   4.000000E-01   4.000000E-01   4.000000E-01   4.000000E-01   4.000000E-01   4.000000E-01   4.000000E-01   4.000000E-01   4.000000E-01   4.000000E-01   4.000000E-01   4.000000E-01   4.000000E-01   4.000000E-01   4.000000E-01   4.000000E-01   4.000000E-01   4.000000E-01   4.000000E-01   4.000000E-01   4.000000E-01   4.000000E-01   4.000000E-01   4.000000E-01   4.000000E-01   4.000000E-01   4.000000E-01   4.000000E-01   4.000000E-01   4.000000E-01   4.000000E-01   4.000000E-01   4.000000E-01   4.000000E-01   4.000000E-01   4.000000E-01   4.000000E-01   4.000000E-01   4.000000E-01   4.000000E-01   4.000000E-01   4.000000E-01   4.000000E-01   4.000000E-01   4.000000E-01   4.000000E-01   4.000000E-01   4.000000E-01   4.000000E-01   4.000000E-01   4.000000E-01   4.000000E-01   4.000000E-01   4.000000E-01   4.000000E-01   4.000000E-01   4.000000E-01   4.000000E-01   4.000000E-01   4.000000E-01   4.000000E-01   4.000000E-01   4.000000E-01   4.000000E-01   4.000000E-01   4.000000E-01   4.000000E-01   4.000000E-01   4.000000E-01   4.000000E-01   4.000000E-01   4.000000E-01   4.000000E-01   4.000000E-01   4.000000E-01   4.000000E-01   4.000000E-01   4.000000E-01   4.000000E-01   4.000000E-01   4.000000E-01   4.000000E-01   4.000000E-01   4.000000E-01   4.000000E-01   4.000000E-01   4.000000E-01   4.000000E-01   4.000000E-01   4.000000E-01   4.000000E-01   4.000000E-01   4.000000E-01   4.000000E-01   4.000000E-01   4.000000E-01   4.000000E-01   4.000000E-01   4.000000E-01   4.000000E-01   4.000000E-01   4.000000E-01   4.000000E-01   4.000000E-01   4.000000E-01   4.000000E-01   4.000000E-01   4.000000E-01   4.000000E-01   4.000000E-01   4.000000E-01   4.000000E-01   4.000000E-01   4.000000E-01   4.000000E-01   4.000000E-01   4.000000E-01   4.000000E-01   4.000000E-01   4.000000E-01   4.000000E-01   4.000000E-01   4.000000E-01   4.000000E-01   4.000000E-01   4.000000E-01   4.000000E-01   4.000000E-01   4.000000E-01   4.000000E-01   4.000000E-01   4.000000E-01   4.000000E-01   4.000000E-01   4.000000E-01   4.000000E-01   4.000000E-01   4.000000E-01   4.000000E-01   4.000000E-01   4.000000E-01   4.000000E-01   4.000000E-01   4.000000E-01   4.000000E-01   4.000000E-01   4.000000E-01   4.000000E-01   4.000000E-01   4.000000E-01   4.000000E-01   4.000000E-01   4.000000E-01   4.000000E-01   4.000000E-01   4.000000E-01   4.000000E-01   4.000000E-01   4.000000E-01   4.000000E-01   4.000000E-01   4.000000E-01   4.000000E-01   4.000000E-01   4.000000E-01   4.000000E-01   4.000000E-01   4.000000E-01   4.000000E-01   4.000000E-01   4.000000E-01   4.000000E-01   4.000000E-01   4.000000E-01   4.000000E-01   4.000000E-01   4.000000E-01   4.000000E-01   4.000000E-01   4.000000E-01   4.000000E-01   4.000000E-01   4.000000E-01   4.000000E-01   4.000000E-01   4.000000E-01   4.000000E-01   4.000000E-01   4.000000E-01   4.000000E-01   4.000000E-01   4.000000E-01   4.000000E-01   4.000000E-01   4.000000E-01   4.000000E-01   4.000000E-01   4.000000E-01   4.000000E-01   4.000000E-01   4.000000E-01   4.000000E-01   4.000000E-01   4.000000E-01   4.000000E-01   4.000000E-01   4.000000E-01   4.000000E-01   4.000000E-01   4.000000E-01   4.000000E-01   4.000000E-01   4.000000E-01   4.000000E-01   4.000000E-01   4.000000E-01   4.000000E-01   4.000000E-01   4.000000E-01   4.000000E-01   4.000000E-01   4.000000E-01   4.000000E-01   4.000000E-01   4.000000E-01   4.000000E-01   4.000000E-01   4.000000E-01   4.000000E-01   4.000000E-01   4.000000E-01   4.000000E-01   4.000000E-01   4.000000E-01   4.000000E-01   4.000000E-01   4.000000E-01   4.000000E-01   4.000000E-01   4.000000E-01   4.000000E-01   4.000000E-01   4.000000E-01   4.000000E-01   4.000000E-01   4.000000E-01   4.000000E-01   4.000000E-01   4.000000E-01   4.000000E-01   4.000000E-01   4.000000E-01   4.000000E-01   4.000000E-01   4.000000E-01   4.000000E-01   4.000000E-01   4.000000E-01   4.000000E-01   4.000000E-01   4.000000E-01   4.000000E-01   4.000000E-01   4.000000E-01   4.000000E-01   4.000000E-01   4.000000E-01   4.000000E-01   4.000000E-01   4.000000E-01   4.000000E-01   4.000000E-01   4.000000E-01   4.000000E-01   4.000000E-01   4.000000E-01   4.000000E-01   4.000000E-01   4.000000E-01   4.000000E-01   4.000000E-01   4.000000E-01   4.000000E-01   4.000000E-01   4.000000E-01   4.000000E-01   4.000000E-01   4.000000E-01   4.000000E-01   4.000000E-01   4.000000E-01   4.000000E-01   4.000000E-01   4.000000E-01   4.000000E-01   4.000000E-01   4.000000E-01   4.000000E-01   4.000000E-01   4.000000E-01   4.000000E-01   4.000000E-01   4.000000E-01   4.000000E-01   4.000000E-01   4.000000E-01   4.000000E-01   4.000000E-01   4.000000E-01   4.000000E-01   4.000000E-01   4.000000E-01   4.000000E-01   4.000000E-01   4.000000E-01   4.000000E-01   4.000000E-01   4.000000E-01   4.000000E-01   4.000000E-01   4.000000E-01   4.000000E-01   4.000000E-01   4.000000E-01   4.000000E-01   4.000000E-01   4.000000E-01   4.000000E-01   4.000000E-01   4.000000E-01   4.000000E-01   4.000000E-01   4.000000E-01   4.000000E-01   4.000000E-01   4.000000E-01   4.000000E-01   4.000000E-01   4.000000E-01   4.000000E-01   4.000000E-01   4.000000E-01   4.000000E-01   4.000000E-01   4.000000E-01   4.000000E-01   4.000000E-01   4.000000E-01   4.000000E-01   4.000000E-01   4.000000E-01   4.000000E-01   4.000000E-01   4.000000E-01   4.000000E-01   4.000000E-01   4.000000E-01   4.000000E-01   4.000000E-01   4.000000E-01   4.000000E-01   4.000000E-01   4.000000E-01   4.000000E-01   4.000000E-01   4.000000E-01   4.000000E-01   4.000000E-01   4.000000E-01   4.000000E-01   4.000000E-01   4.000000E-01   4.000000E-01   4.000000E-01   4.000000E-01   4.000000E-01   4.000000E-01   4.000000E-01   4.000000E-01   4.000000E-01   4.000000E-01   4.000000E-01   4.000000E-01   4.000000E-01   4.000000E-01   4.000000E-01   4.000000E-01   4.000000E-01   4.000000E-01   4.000000E-01   4.000000E-01   4.000000E-01   4.000000E-01   4.000000E-01   4.000000E-01   4.000000E-01   4.000000E-01   4.000000E-01   4.000000E-01   4.000000E-01   4.000000E-01   4.000000E-01   4.000000E-01   4.000000E-01   4.000000E-01   4.000000E-01   4.000000E-01   4.000000E-01   4.000000E-01   4.000000E-01   4.000000E-01   4.000000E-01   4.000000E-01   4.000000E-01   4.000000E-01   4.000000E-01   4.000000E-01   4.000000E-01   4.000000E-01   4.000000E-01   4.000000E-01   4.000000E-01   4.000000E-01   4.000000E-01   4.000000E-01   4.000000E-01   4.000000E-01   4.000000E-01   4.000000E-01   4.000000E-01   4.000000E-01   4.000000E-01   4.000000E-01   4.000000E-01   4.000000E-01   4.000000E-01   4.000000E-01   4.000000E-01   4.000000E-01   4.000000E-01   4.000000E-01   4.000000E-01   4.000000E-01   4.000000E-01   4.000000E-01   4.000000E-01   4.000000E-01   4.000000E-01   4.000000E-01   4.000000E-01   4.000000E-01   4.000000E-01   4.000000E-01   4.000000E-01   4.000000E-01   4.000000E-01   4.000000E-01   4.000000E-01   4.000000E-01   4.000000E-01   4.000000E-01   4.000000E-01   4.000000E-01   4.000000E-01   4.000000E-01   4.000000E-01   4.000000E-01   4.000000E-01   4.000000E-01   4.000000E-01   4.000000E-01   4.000000E-01   4.000000E-01   4.000000E-01   4.000000E-01   4.000000E-01   4.000000E-01   4.000000E-01   4.000000E-01   4.000000E-01   4.000000E-01   4.000000E-01   4.000000E-01   4.000000E-01   4.000000E-01   4.000000E-01   4.000000E-01   4.000000E-01   4.000000E-01   4.000000E-01   4.000000E-01   4.000000E-01   4.000000E-01   4.000000E-01   4.000000E-01   4.000000E-01   4.000000E-01   4.000000E-01   4.000000E-01   4.000000E-01   4.000000E-01   4.000000E-01   4.000000E-01   4.000000E-01   4.000000E-01   4.000000E-01   4.000000E-01   4.000000E-01   4.000000E-01   4.000000E-01   4.000000E-01   4.000000E-01   4.000000E-01   4.000000E-01   4.000000E-01   4.000000E-01   4.000000E-01   4.000000E-01   4.000000E-01   4.000000E-01   4.000000E-01   4.000000E-01   4.000000E-01   4.000000E-01   4.000000E-01   4.000000E-01   4.000000E-01   4.000000E-01   4.000000E-01   4.000000E-01   4.000000E-01   4.000000E-01   4.000000E-01   4.000000E-01   4.000000E-01   4.000000E-01   4.000000E-01   4.000000E-01   4.000000E-01   4.000000E-01   4.000000E-01   4.000000E-01   4.000000E-01   4.000000E-01   4.000000E-01   4.000000E-01   4.000000E-01   4.000000E-01   4.000000E-01   4.000000E-01   4.000000E-01   4.000000E-01   4.000000E-01   4.000000E-01   4.000000E-01   4.000000E-01   4.000000E-01   4.000000E-01   4.000000E-01   4.000000E-01   4.000000E-01   4.000000E-01   4.000000E-01   4.000000E-01   4.000000E-01   4.000000E-01   4.000000E-01   4.000000E-01   4.000000E-01   4.000000E-01   4.000000E-01   4.000000E-01   4.000000E-01   4.000000E-01   4.000000E-01   4.000000E-01   4.000000E-01   4.000000E-01   4.000000E-01   4.000000E-01   4.000000E-01   4.000000E-01   4.000000E-01   4.000000E-01   4.000000E-01   4.000000E-01   4.000000E-01   4.000000E-01   4.000000E-01   4.000000E-01   4.000000E-01   4.000000E-01   4.000000E-01   4.000000E-01   4.000000E-01   4.000000E-01   4.000000E-01   4.000000E-01   4.000000E-01   4.000000E-01   4.000000E-01   4.000000E-01   4.000000E-01   4.000000E-01   4.000000E-01   4.000000E-01   4.000000E-01   4.000000E-01   4.000000E-01   4.000000E-01   4.000000E-01   4.000000E-01   4.000000E-01   4.000000E-01   4.000000E-01   4.000000E-01   4.000000E-01   4.000000E-01   4.000000E-01   4.000000E-01   4.000000E-01   4.000000E-01   4.000000E-01   4.000000E-01   4.000000E-01   4.000000E-01   4.000000E-01   4.000000E-01   4.000000E-01   4.000000E-01   4.000000E-01   4.000000E-01   4.000000E-01   4.000000E-01   4.000000E-01   4.000000E-01   4.000000E-01   4.000000E-01   4.000000E-01   4.000000E-01   4.000000E-01   4.000000E-01   4.000000E-01   4.000000E-01   4.000000E-01   4.000000E-01   4.000000E-01   4.000000E-01   4.000000E-01   4.000000E-01   4.000000E-01   4.000000E-01   4.000000E-01   4.000000E-01   4.000000E-01   4.000000E-01   4.000000E-01   4.000000E-01   4.000000E-01   4.000000E-01   4.000000E-01   4.000000E-01   4.000000E-01   4.000000E-01   4.000000E-01   4.000000E-01   4.000000E-01   4.000000E-01   4.000000E-01   4.000000E-01   4.000000E-01   4.000000E-01   4.000000E-01   4.000000E-01   4.000000E-01   4.000000E-01   4.000000E-01   4.000000E-01   4.000000E-01   4.000000E-01   4.000000E-01   4.000000E-01   4.000000E-01   4.000000E-01   4.000000E-01   4.000000E-01   4.000000E-01   4.000000E-01   4.000000E-01   4.000000E-01   4.000000E-01   4.000000E-01   4.000000E-01   4.000000E-01   4.000000E-01   4.000000E-01   4.000000E-01   4.000000E-01   4.000000E-01   4.000000E-01   4.000000E-01   4.000000E-01   4.000000E-01   4.000000E-01   4.000000E-01   4.000000E-01   4.000000E-01   4.000000E-01   4.000000E-01   4.000000E-01   4.000000E-01   4.000000E-01   4.000000E-01   4.000000E-01   4.000000E-01   4.000000E-01   4.000000E-01   4.000000E-01   4.000000E-01   4.000000E-01   4.000000E-01   4.000000E-01   4.000000E-01   4.000000E-01   4.000000E-01   4.000000E-01   4.000000E-01   4.000000E-01   4.000000E-01   4.000000E-01   4.000000E-01   4.000000E-01   4.000000E-01   4.000000E-01   4.000000E-01   4.000000E-01   4.000000E-01   4.000000E-01   4.000000E-01   4.000000E-01   4.000000E-01   4.000000E-01   4.000000E-01   4.000000E-01   4.000000E-01   4.000000E-01   4.000000E-01   4.000000E-01   4.000000E-01   4.000000E-01   4.000000E-01   4.000000E-01   4.000000E-01   4.000000E-01   4.000000E-01   4.000000E-01   4.000000E-01   4.000000E-01   4.000000E-01   4.000000E-01   4.000000E-01   4.000000E-01   4.000000E-01   4.000000E-01   4.000000E-01   4.000000E-01   4.000000E-01   4.000000E-01   4.000000E-01   4.000000E-01   4.000000E-01   4.000000E-01   4.000000E-01   4.000000E-01   4.000000E-01   4.000000E-01   4.000000E-01   4.000000E-01   4.000000E-01   4.000000E-01   4.000000E-01   4.000000E-01   4.000000E-01   4.000000E-01   4.000000E-01   4.000000E-01   4.000000E-01   4.000000E-01   4.000000E-01   4.000000E-01   4.000000E-01   4.000000E-01   4.000000E-01   4.000000E-01   4.000000E-01   4.000000E-01   4.000000E-01   4.000000E-01   4.000000E-01   4.000000E-01   4.000000E-01   4.000000E-01   4.000000E-01   4.000000E-01   4.000000E-01   4.000000E-01   4.000000E-01   4.000000E-01   4.000000E-01   4.000000E-01   4.000000E-01   4.000000E-01   4.000000E-01   4.000000E-01   4.000000E-01   4.000000E-01   4.000000E-01   4.000000E-01   4.000000E-01   4.000000E-01   4.000000E-01   4.000000E-01   4.000000E-01   4.000000E-01   4.000000E-01   4.000000E-01   4.000000E-01   4.000000E-01   4.000000E-01   4.000000E-01   4.000000E-01   4.000000E-01   4.000000E-01   4.000000E-01   4.000000E-01   4.000000E-01   4.000000E-01   4.000000E-01   4.000000E-01   4.000000E-01   4.000000E-01   4.000000E-01   4.000000E-01   4.000000E-01   4.000000E-01   4.000000E-01   4.000000E-01   4.000000E-01   4.000000E-01   4.000000E-01   4.000000E-01   4.000000E-01   4.000000E-01   4.000000E-01   4.000000E-01   4.000000E-01   4.000000E-01   4.000000E-01   4.000000E-01   4.000000E-01   4.000000E-01   4.000000E-01   4.000000E-01   4.000000E-01   4.000000E-01   4.000000E-01   4.000000E-01   4.000000E-01   4.000000E-01   4.000000E-01   4.000000E-01   4.000000E-01   4.000000E-01   4.000000E-01   4.000000E-01   4.000000E-01   4.000000E-01   4.000000E-01   4.000000E-01   4.000000E-01   4.000000E-01   4.000000E-01   4.000000E-01   4.000000E-01   4.000000E-01   4.000000E-01   4.000000E-01   4.000000E-01   4.000000E-01   4.000000E-01   4.000000E-01   4.000000E-01   4.000000E-01   4.000000E-01   4.000000E-01   4.000000E-01   4.000000E-01   4.000000E-01   4.000000E-01   4.000000E-01   4.000000E-01   4.000000E-01   4.000000E-01   4.000000E-01   4.000000E-01   4.000000E-01   4.000000E-01   4.000000E-01   4.000000E-01   4.000000E-01   4.000000E-01   4.000000E-01   4.000000E-01   4.000000E-01   4.000000E-01   4.000000E-01   4.000000E-01   4.000000E-01   4.000000E-01   4.000000E-01   4.000000E-01   4.000000E-01   4.000000E-01   4.000000E-01   4.000000E-01   4.000000E-01   4.000000E-01   4.000000E-01   4.000000E-01   4.000000E-01   4.000000E-01   4.000000E-01   4.000000E-01   4.000000E-01   4.000000E-01   4.000000E-01   4.000000E-01   4.000000E-01   4.000000E-01   4.000000E-01   4.000000E-01   4.000000E-01   4.000000E-01   4.000000E-01   4.000000E-01   4.000000E-01   4.000000E-01   4.000000E-01   4.000000E-01   4.000000E-01   4.000000E-01   4.000000E-01   4.000000E-01   4.000000E-01   4.000000E-01   4.000000E-01   4.000000E-01   4.000000E-01   4.000000E-01   4.000000E-01   4.000000E-01   4.000000E-01   4.000000E-01   4.000000E-01   4.000000E-01   4.000000E-01   4.000000E-01   4.000000E-01   4.000000E-01   4.000000E-01   4.000000E-01   4.000000E-01   4.000000E-01   4.000000E-01   4.000000E-01   4.000000E-01   4.000000E-01   4.000000E-01   4.000000E-01   4.000000E-01   4.000000E-01   4.000000E-01   4.000000E-01   4.000000E-01   4.000000E-01   4.000000E-01   4.000000E-01   4.000000E-01   4.000000E-01   4.000000E-01   4.000000E-01   4.000000E-01   4.000000E-01   4.000000E-01   4.000000E-01   4.000000E-01   4.000000E-01   4.000000E-01   4.000000E-01   4.000000E-01   4.000000E-01   4.000000E-01   4.000000E-01   4.000000E-01   4.000000E-01   4.000000E-01   4.000000E-01   4.000000E-01   4.000000E-01   4.000000E-01   4.000000E-01   4.000000E-01   4.000000E-01   4.000000E-01   4.000000E-01   4.000000E-01   4.000000E-01   4.000000E-01   4.000000E-01   4.000000E-01   4.000000E-01   4.000000E-01   4.000000E-01   4.000000E-01   4.000000E-01   4.000000E-01   