<?xml version="1.0"?>
<!-- Time =  1.4003976260280602E+00s -->
<VTKFile type="PolyData" version="0.1" byte_order="LittleEndian">
<PolyData>
<Piece NumberOfPoints="0000002400" NumberOfVerts="0" NumberOfLines="0" NumberOfStrips="0" NumberOfPolys="0">
<Points>
<DataArray type="Float32" Name="Position" NumberOfComponents="3" format="ascii">
  4.569443E-01   1.969879E-01   2.090102E-01   5.580912E+00   2.038814E-01   4.520753E-01   6.383857E+00   3.311362E+00   4.420992E-01   7.827499E+00   4.129095E+00   3.071015E-01   5.869165E+00   3.804769E+00   1.734775E+00   1.247319E+01   1.529583E+00   3.214376E+00   6.434293E+00   3.206285E+00   1.314490E+00   5.792234E+00   9.171307E-01   1.213933E+00   1.389319E+01   9.588267E+00   2.331524E+00   5.902518E+00   7.415459E-01   3.554784E+00   8.681365E-01   1.156626E+01   2.183425E+00   8.891475E+00   7.242578E+00   7.380663E-01   2.981866E+00   1.214204E+01   6.983250E-01   3.788762E+00   2.283720E-01   1.542122E+00   5.457845E+00   9.317776E+00   3.450926E+00   3.663987E+00   1.216313E+01   4.775412E+00   8.085591E+00   9.916879E+00   3.572624E-01   7.069106E+00   7.217338E-01   2.303761E+00   3.446836E+00   8.558002E+00   2.352677E+00   8.956456E+00   1.038802E+01   1.873212E+00   1.051819E+01   4.666636E-01   1.540097E+00   1.367562E+01   1.574920E+00   4.291288E+00   1.227368E+01   6.768335E-01   2.586195E+00   1.170110E+01   7.672577E+00   2.111493E+00   5.808488E+00   2.775342E+00   1.814784E+00   3.938584E+00   1.752330E+01   5.530602E-01   8.196914E+00   9.046488E-01   7.123345E-01   1.339525E+01   4.284270E+00   1.417860E+00   5.482492E+00   8.111482E-01   5.767653E-01   9.287502E+00   6.090586E-01   2.533784E+00   2.472979E+00   9.982141E+00   9.004506E-01   5.110703E+00   1.367496E+00   2.587595E+00   1.288262E+01   1.402100E+01   3.674252E+00   6.052000E-01   2.903385E-01   1.666043E+00   2.859938E-01   2.121569E-01   1.377774E+00   7.083216E+00   1.354051E+00   2.785549E-01   4.544809E+00   5.676070E+00   7.937023E-01   7.181852E+00   5.711793E+00   1.685655E+00   4.110318E+00   2.402336E+00   2.284856E+00   1.149671E+01   6.343361E+00   3.861661E+00   2.672618E+00   1.971749E-01   1.705863E+00   2.040340E+00   1.112618E+01   2.889355E+00   5.480868E+00   5.928137E-01   9.819483E-01   3.567796E+00   1.041885E+01   1.024724E+00   1.451891E+01   2.299449E+00   3.674196E+00   4.720699E+00   1.372075E+00   4.647396E+00   5.394770E+00   4.562685E+00   5.552039E-01   6.414183E+00   2.072496E-01   3.643684E+00   1.092086E+01   1.265572E+01   7.151794E-01   9.852728E-01   1.877185E-01   1.704434E+00   6.856987E+00   1.821518E+01   1.050776E+00   5.542038E+00   1.335477E+01   3.956043E+00   3.281794E+00   9.481038E-01   2.182194E+00   4.216373E+00   6.314134E-01   1.297953E+00   1.373745E+01   3.125625E-01   3.088054E+00   1.080686E+01   1.021502E+01   1.807720E+00   1.020437E+01   1.008493E+00   9.369476E-01   5.574265E+00   2.586044E+00   3.498302E+00   1.228154E+01   3.307778E-01   2.856587E-01   5.587054E+00   4.953022E+00   5.072815E-01   8.697589E+00   1.048208E+00   7.150430E-01   4.155955E-01   8.215161E+00   4.576311E+00   1.110190E+01   1.331192E+01   9.311146E-01   2.125925E+00   1.978712E-01   6.475513E-01   2.420984E+00   2.446935E-01   2.278790E-01   4.583073E+00   2.050539E-01   2.000609E-01   5.553467E+00   9.411271E-01   2.279316E+00   5.306177E+00   6.391724E+00   7.273458E-01   7.056026E+00   6.708966E+00   4.797824E-01   5.702480E+00   3.202957E+00   8.069599E-01   3.196983E+00   9.687001E-01   3.352829E-01   3.194768E+00   4.921636E+00   2.677380E+00   5.739903E+00   2.177728E-01   1.546399E+00   4.247754E+00   9.504733E-01   4.204357E+00   8.140785E+00   7.299401E-01   4.355321E+00   1.365246E+01   7.978050E+00   1.751692E+00   2.042148E+00   5.159609E+00   2.145417E+00   3.992780E+00   1.476844E+01   3.951296E+00   2.816257E-01   1.488586E+00   2.385536E+00   6.819656E+00   1.237400E+00   1.547017E+00   9.158171E+00   8.652259E+00   2.743073E+00   6.976157E+00   1.947641E+00   1.116027E+00   6.235800E+00   2.076784E-01   1.262110E+00   6.059568E+00   2.171015E-01   2.041680E+00   6.978537E+00   8.562348E-01   1.860663E+00   9.143798E+00   1.667290E+01   3.992350E+00   1.448916E+01   7.789066E+00   4.169063E+00   5.430331E-01   9.118757E-01   1.146564E+00   1.212349E+00   8.033840E-01   2.711156E+00   7.365313E+00   2.051003E+00   9.224206E-01   5.994761E+00   1.176574E+01   1.485573E+00   1.426702E+01   6.171910E+00   7.080798E-01   2.271533E+00   1.128686E+01   2.218171E+00   7.328375E+00   1.941489E+00   2.061190E+00   4.106129E+00   2.010429E-01   1.786198E+00   6.350639E+00   5.315691E+00   3.171065E-01   5.814721E+00   7.061371E+00   1.001141E+00   1.290584E+01   1.325111E+01   1.171445E+00   8.953399E+00   8.819247E+00   4.800704E+00   4.407242E+00   7.535284E-01   2.839908E+00   6.143631E+00   5.271807E-01   5.631825E-01   5.791103E+00   1.016755E+00   3.005425E-01   1.868314E+00   2.054154E-01   2.785119E-01   1.224307E+01   4.567498E+00   3.930053E+00   1.465595E+01   2.693638E+00   5.394403E-01   3.878316E+00   2.174668E-01   3.716558E+00   5.447200E+00   2.549886E+00   4.170234E+00   4.906129E+00   1.198877E+01   3.535281E+00   2.178208E+00   3.198457E-01   3.047670E+00   1.071375E+01   8.595248E+00   2.204732E+00   4.947740E+00   8.644461E+00   2.406206E+00   6.013035E+00   8.011935E+00   4.468512E+00   3.813140E+00   5.110001E-01   5.075967E-01   5.234235E+00   2.322358E-01   3.926251E+00   1.868598E+00   5.881033E-01   2.074600E+00   1.287827E+01   1.757162E+01   1.759675E+00   1.281450E+00   1.874661E+00   2.779377E+00   5.242906E+00   5.971371E+00   3.325189E+00   1.047488E+00   5.367706E-01   1.495231E+00   9.541383E+00   5.763125E-01   2.220417E-01   1.097384E+01   1.287794E+01   2.377262E+00   1.436887E+01   4.815797E+00   6.479344E-01   8.130790E+00   1.327172E+01   3.045195E+00   6.857218E+00   9.147376E+00   2.482247E+00   8.031068E+00   1.687872E+00   7.549742E-01   2.118357E+00   2.037589E-01   2.530989E+00   6.274664E+00   5.688598E+00   1.001392E+00   1.425028E+01   3.101200E-01   4.365414E+00   1.494174E+00   1.138395E+00   1.627357E+00   2.194590E+00   3.191741E+00   3.620025E+00   1.098980E+01   2.261965E+01   2.392827E+00   6.259773E+00   2.164638E-01   4.846761E+00   6.731368E+00   2.214220E-01   3.926324E+00   3.566229E+00   1.127754E+00   9.026878E-01   1.988877E+00   9.119583E+00   4.200926E+00   8.455045E+00   1.026491E+00   3.521956E+00   1.135058E+01   6.191583E+00   3.841970E-01   1.090827E+01   6.517695E-01   4.278726E+00   1.930404E+00   1.049399E+01   9.320464E-01   4.118728E+00   1.990692E+00   7.272922E-01   5.413679E+00   8.704362E-01   4.432441E+00   7.107315E+00   1.084709E+01   1.112071E+00   7.211578E+00   5.343997E+00   1.928798E+00   6.083878E+00   2.117898E-01   4.392080E+00   5.681848E+00   1.848359E+00   3.988185E+00   7.729049E+00   1.696162E+01   1.158515E+00   1.462698E+01   4.163408E-01   4.903123E+00   2.817991E+00   9.345793E-01   6.719067E-01   2.214805E+00   5.440801E-01   4.367301E+00   5.944669E+00   1.452109E+00   5.892477E-01   7.644559E+00   6.670119E+00   2.550610E+00   2.335907E+00   1.089556E+01   3.948731E+00   9.304582E+00   1.587439E+00   1.389457E+00   6.655564E+00   4.432484E+00   9.675788E-01   3.261227E+00   2.426728E-01   5.968865E-01   5.551335E+00   1.254308E+00   6.013824E-01   5.627806E+00   5.584083E-01   1.368624E+00   1.391976E+01   4.265291E+00   9.597570E-01   8.968713E-01   1.943275E-01   1.953329E-01   3.740003E+00   4.652318E+00   5.326717E-01   1.103531E+01   1.544010E+01   2.630773E+00   3.436007E+00   1.988626E-01   1.738432E+00   6.051949E+00   8.661232E+00   2.461732E+00   3.258347E+00   5.029099E+00   2.125237E+00   1.680213E+00   7.619182E-01   4.299633E+00   5.285202E+00   2.066786E-01   3.012926E+00   1.451798E+01   1.289429E+01   2.358850E+00   3.477221E+00   4.496811E+00   1.529667E+00   8.319530E+00   5.992873E-01   1.304950E+00   1.305130E+01   1.213257E+00   2.584203E-01   1.065929E+01   1.991597E+00   7.396483E-01   1.031459E+01   5.661192E+00   3.741151E-01   9.619413E-01   3.528946E-01   4.814549E+00   1.414823E+00   6.353319E+00   2.626810E+00   5.275610E+00   1.046574E+00   4.033893E+00   5.307163E+00   3.631553E+00   1.842370E+00   1.277171E+00   9.689996E+00   1.702550E+00   4.511368E-01   7.190520E-01   1.532798E+00   8.143435E-01   4.607617E+00   1.554804E+00   4.550681E+00   9.117966E-01   2.335552E+00   5.308877E+00   9.285768E+00   1.978857E-01   1.451412E+01   1.922676E+00   5.868701E-01   2.674037E+00   2.168218E-01   2.130327E+00   7.029599E+00   7.052134E-01   8.642660E-01   9.857612E+00   5.717965E+00   2.774438E-01   6.122610E+00   7.349948E-01   2.069668E-01   1.189839E+01   5.901164E-01   2.616071E+00   5.658993E+00   2.524322E+00   1.120248E+00   4.978603E+00   9.609023E-01   2.141734E+00   8.812999E+00   1.546367E+00   9.496239E-01   1.212566E+01   2.522419E-01   3.321466E+00   1.754445E+00   2.037638E-01   9.758711E-01   1.419921E+01   7.723303E+00   3.683813E+00   2.313438E-01   5.808110E-01   9.833302E-01   3.500320E+00   6.594870E+00   4.116270E+00   1.240003E+01   7.051207E+00   3.488117E+00   3.973252E+00   6.720482E-01   4.877310E+00   8.497369E+00   3.454126E-01   3.210729E+00   3.637105E+00   1.998549E-01   2.084660E+00   6.191559E+00   3.662874E+00   2.053378E+00   3.607363E+00   1.091094E+01   3.951254E+00   4.919358E+00   9.146388E-01   3.260544E-01   6.587402E-01   1.161962E+00   6.362241E-01   5.398864E+00   4.659799E+00   1.361712E+00   6.136774E-01   2.109215E-01   5.825999E-01   1.327573E+01   4.873593E-01   1.742669E+00   1.083424E+01   1.583470E+01   2.725016E+00   7.865993E+00   3.163100E-01   3.037986E+00   1.085328E+01   8.684626E-01   3.159679E+00   4.349599E+00   1.486182E+00   1.135876E+00   8.728579E+00   5.844913E-01   1.512662E+00   8.666191E+00   8.846796E+00   2.228313E+00   8.648262E+00   6.481513E+00   1.871133E+00   3.333055E+00   1.259732E+01   1.055042E+00   1.479147E+01   8.147384E+00  
[...]
<PointData Scalars="Diameter" Vectors="Velocity">
<DataArray type="Float32" Name="Diameter" format="ascii">
  4.000000E-01   4.000000E-01   4.000000E-01   4.000000E-01   4.000000E-01   4.000000E-01   4.000000E-01   4.000000E-01   4.000000E-01   4.000000E-01   4.000000E-01   4.000000E-01   4.000000E-01   4.000000E-01   4.000000E-01   4.000000E-01   4.000000E-01   4.000000E-01   4.000000E-01   4.000000E-01   4.000000E-01   4.000000E-01   4.000000E-01   4.000000E-01   4.000000E-01   4.000000E-01   4.000000E-01   4.000000E-01   4.000000E-01   4.000000E-01   4.000000E-01   4.000000E-01   4.000000E-01   4.000000E-01   4.000000E-01   4.000000E-01   4.000000E-01   4.000000E-01   4.000000E-01   4.000000E-01   4.000000E-01   4.000000E-01   4.000000E-01   4.000000E-01   4.000000E-01   4.000000E-01   4.000000E-01   4.000000E-01   4.000000E-01   4.000000E-01   4.000000E-01   4.000000E-01   4.000000E-01   4.000000E-01   4.000000E-01   4.000000E-01   4.000000E-01   4.000000E-01   4.000000E-01   4.000000E-01   4.000000E-01   4.000000E-01   4.000000E-01   4.000000E-01   4.000000E-01   4.000000E-01   4.000000E-01   4.000000E-01   4.000000E-01   4.000000E-01   4.000000E-01   4.000000E-01   4.000000E-01   4.000000E-01   4.000000E-01   4.000000E-01   4.000000E-01   4.000000E-01   4.000000E-01   4.000000E-01   4.000000E-01   4.000000E-01   4.000000E-01   4.000000E-01   4.000000E-01   4.000000E-01   4.000000E-01   4.000000E-01   4.000000E-01   4.000000E-01   4.000000E-01   4.000000E-01   4.000000E-01   4.000000E-01   4.000000E-01   4.000000E-01   4.000000E-01   4.000000E-01   4.000000E-01   4.000000E-01   4.000000E-01   4.000000E-01   4.000000E-01   4.000000E-01   4.000000E-01   4.000000E-01   4.000000E-01   4.000000E-01   4.000000E-01   4.000000E-01   4.000000E-01   4.000000E-01   4.000000E-01   4.000000E-01   4.000000E-01   4.000000E-01   4.000000E-01   4.000000E-01   4.000000E-01   4.000000E-01   4.000000E-01   4.000000E-01   4.000000E-01   4.000000E-01   4.000000E-01   4.000000E-01   4.000000E-01   4.000000E-01   4.000000E-01   4.000000E-01   4.000000E-01   4.000000E-01   4.000000E-01   4.000000E-01   4.000000E-01   4.000000E-01   4.000000E-01   4.000000E-01   4.000000E-01   4.000000E-01   4.000000E-01   4.000000E-01   4.000000E-01   4.000000E-01   4.000000E-01   4.000000E-01   4.000000E-01   4.000000E-01   4.000000E-01   4.000000E-01   4.000000E-01   4.000000E-01   4.000000E-01   4.000000E-01   4.000000E-01   4.000000E-01   4.000000E-01   4.000000E-01   4.000000E-01   4.000000E-01   4.000000E-01   4.000000E-01   4.000000E-01   4.000000E-01   4.000000E-01   4.000000E-01   4.000000E-01   4.000000E-01   4.000000E-01   4.000000E-01   4.000000E-01   4.000000E-01   4.000000E-01   4.000000E-01   4.000000E-01   4.000000E-01   4.000000E-01   4.000000E-01   4.000000E-01   4.000000E-01   4.000000E-01   4.000000E-01   4.000000E-01   4.000000E-01   4.000000E-01   4.000000E-01   4.000000E-01   4.000000E-01   4.000000E-01   4.000000E-01   4.000000E-01   4.000000E-01   4.000000E-01   4.000000E-01   4.000000E-01   4.000000E-01   4.000000E-01   4.000000E-01   4.000000E-01   4.000000E-01   4.000000E-01   4.000000E-01   4.000000E-01   4.000000E-01   4.000000E-01   4.000000E-01   4.000000E-01   4.000000E-01   4.000000E-01   4.000000E-01   4.000000E-01   4.000000E-01   4.000000E-01   4.000000E-01   4.000000E-01   4.000000E-01   4.000000E-01   4.000000E-01   4.000000E-01   4.000000E-01   4.000000E-01   4.000000E-01   4.000000E-01   4.000000E-01   4.000000E-01   4.000000E-01   4.000000E-01   4.000000E-01   4.000000E-01   4.000000E-01   4.000000E-01   4.000000E-01   4.000000E-01   4.000000E-01   4.000000E-01   4.000000E-01   4.000000E-01   4.000000E-01   4.000000E-01   4.000000E-01   4.000000E-01   4.000000E-01   4.000000E-01   4.000000E-01   4.000000E-01   4.000000E-01   4.000000E-01   4.000000E-01   4.000000E-01   4.000000E-01   4.000000E-01   4.000000E-01   4.000000E-01   4.000000E-01   4.000000E-01   4.000000E-01   4.000000E-01   4.000000E-01   4.000000E-01   4.000000E-01   4.000000E-01   4.000000E-01   4.000000E-01   4.000000E-01   4.000000E-01   4.000000E-01   4.000000E-01   4.000000E-01   4.000000E-01   4.000000E-01   4.000000E-01   4.000000E-01   4.000000E-01   4.000000E-01   4.000000E-01   4.000000E-01   4.000000E-01   4.000000E-01   4.000000E-01   4.000000E-01   4.000000E-01   4.000000E-01   4.000000E-01   4.000000E-01   4.000000E-01   4.000000E-01   4.000000E-01   4.000000E-01   4.000000E-01   4.000000E-01   4.000000E-01   4.000000E-01   4.000000E-01   4.000000E-01   4.000000E-01   4.000000E-01   4.000000E-01   4.000000E-01   4.000000E-01   4.000000E-01   4.000000E-01   4.000000E-01   4.000000E-01   4.000000E-01   4.000000E-01   4.000000E-01   4.000000E-01   4.000000E-01   4.000000E-01   4.000000E-01   4.000000E-01   4.000000E-01   4.000000E-01   4.000000E-01   4.000000E-01   4.000000E-01   4.000000E-01   4.000000E-01   4.000000E-01   4.000000E-01   4.000000E-01   4.000000E-01   4.000000E-01   4.000000E-01   4.000000E-01   4.000000E-01   4.000000E-01   4.000000E-01   4.000000E-01   4.000000E-01   4.000000E-01   4.000000E-01   4.000000E-01   4.000000E-01   4.000000E-01   4.000000E-01   4.000000E-01   4.000000E-01   4.000000E-01   4.000000E-01   4.000000E-01   4.000000E-01   4.000000E-01   4.000000E-01   4.000000E-01   4.000000E-01   4.000000E-01   4.000000E-01   4.000000E-01   4.000000E-01   4.000000E-01   4.000000E-01   4.000000E-01   4.000000E-01   4.000000E-01   4.000000E-01   4.000000E-01   4.000000E-01   4.000000E-01   4.000000E-01   4.000000E-01   4.000000E-01   4.000000E-01   4.000000E-01   4.000000E-01   4.000000E-01   4.000000E-01   4.000000E-01   4.000000E-01   4.000000E-01   4.000000E-01   4.000000E-01   4.000000E-01   4.000000E-01   4.000000E-01   4.000000E-01   4.000000E-01   4.000000E-01   4.000000E-01   4.000000E-01   4.000000E-01   4.000000E-01   4.000000E-01   4.000000E-01   4.000000E-01   4.000000E-01   4.000000E-01   4.000000E-01   4.000000E-01   4.000000E-01   4.000000E-01   4.000000E-01   4.000000E-01   4.000000E-01   4.000000E-01   4.000000E-01   4.000000E-01   4.000000E-01   4.000000E-01   4.000000E-01   4.000000E-01   4.000000E-01   4.000000E-01   4.000000E-01   4.000000E-01   4.000000E-01   4.000000E-01   4.000000E-01   4.000000E-01   4.000000E-01   4.000000E-01   4.000000E-01   4.000000E-01   4.000000E-01   4.000000E-01   4.000000E-01   4.000000E-01   4.000000E-01   4.000000E-01   4.000000E-01   4.000000E-01   4.000000E-01   4.000000E-01   4.000000E-01   4.000000E-01   4.000000E-01   4.000000E-01   4.000000E-01   4.000000E-01   4.000000E-01   4.000000E-01   4.000000E-01   4.000000E-01   4.000000E-01   4.000000E-01   4.000000E-01   4.000000E-01   4.000000E-01   4.000000E-01   4.000000E-01   4.000000E-01   4.000000E-01   4.000000E-01   4.000000E-01   4.000000E-01   4.000000E-01   4.000000E-01   4.000000E-01   4.000000E-01   4.000000E-01   4.000000E-01   4.000000E-01   4.000000E-01   4.000000E-01   4.000000E-01   4.000000E-01   4.000000E-01   4.000000E-01   4.000000E-01   4.000000E-01   4.000000E-01   4.000000E-01   4.000000E-01   4.000000E-01   4.000000E-01   4.000000E-01   4.000000E-01   4.000000E-01   4.000000E-01   4.000000E-01   4.000000E-01   4.000000E-01   4.000000E-01   4.000000E-01   4.000000E-01   4.000000E-01   4.000000E-01   4.000000E-01   4.000000E-01   4.000000E-01   4.000000E-01   4.000000E-01   4.000000E-01   4.000000E-01   4.000000E-01   4.000000E-01   4.000000E-01   4.000000E-01   4.000000E-01   4.000000E-01   4.000000E-01   4.000000E-01   4.000000E-01   4.000000E-01   4.000000E-01   4.000000E-01   4.000000E-01   4.000000E-01   4.000000E-01   4.000000E-01   4.000000E-01   4.000000E-01   4.000000E-01   4.000000E-01   4.000000E-01   4.000000E-01   4.000000E-01   4.000000E-01   4.000000E-01   4.000000E-01   4.000000E-01   4.000000E-01   4.000000E-01   4.000000E-01   4.000000E-01   4.000000E-01   4.000000E-01   4.000000E-01   4.000000E-01   4.000000E-01   4.000000E-01   4.000000E-01   4.000000E-01   4.000000E-01   4.000000E-01   4.000000E-01   4.000000E-01   4.000000E-01   4.000000E-01   4.000000E-01   4.000000E-01   4.000000E-01   4.000000E-01   4.000000E-01   4.000000E-01   4.000000E-01   4.000000E-01   4.000000E-01   4.000000E-01   4.000000E-01   4.000000E-01   4.000000E-01   4.000000E-01   4.000000E-01   4.000000E-01   4.000000E-01   4.000000E-01   4.000000E-01   4.000000E-01   4.000000E-01   4.000000E-01   4.000000E-01   4.000000E-01   4.000000E-01   4.000000E-01   4.000000E-01   4.000000E-01   4.000000E-01   4.000000E-01   4.000000E-01   4.000000E-01   4.000000E-01   4.000000E-01   4.000000E-01   4.000000E-01   4.000000E-01   4.000000E-01   4.000000E-01   4.000000E-01   4.000000E-01   4.000000E-01   4.000000E-01   4.000000E-01   4.000000E-01   4.000000E-01   4.000000E-01   4.000000E-01   4.000000E-01   4.000000E-01   4.000000E-01   4.000000E-01   4.000000E-01   4.000000E-01   4.000000E-01   4.000000E-01   4.000000E-01   4.000000E-01   4.000000E-01   4.000000E-01   4.000000E-01   4.000000E-01   4.000000E-01   4.000000E-01   4.000000E-01   4.000000E-01   4.000000E-01   4.000000E-01   4.000000E-01   4.000000E-01   4.000000E-01   4.000000E-01   4.000000E-01   4.000000E-01   4.000000E-01   4.000000E-01   4.000000E-01   4.000000E-01   4.000000E-01   4.000000E-01   4.000000E-01   4.000000E-01   4.000000E-01   4.000000E-01   4.000000E-01   4.000000E-01   4.000000E-01   4.000000E-01   4.000000E-01   4.000000E-01   4.000000E-01   4.000000E-01   4.000000E-01   4.000000E-01   4.000000E-01   4.000000E-01   4.000000E-01   4.000000E-01   4.000000E-01   4.000000E-01   4.000000E-01   4.000000E-01   4.000000E-01   4.000000E-01   4.000000E-01   4.000000E-01   4.000000E-01   4.000000E-01   4.000000E-01   4.000000E-01   4.000000E-01   4.000000E-01   4.000000E-01   4.000000E-01   4.000000E-01   4.000000E-01   4.000000E-01   4.000000E-01   4.000000E-01   4.000000E-01   4.000000E-01   4.000000E-01   4.000000E-01   4.000000E-01   4.000000E-01   4.000000E-01   4.000000E-01   4.000000E-01   4.000000E-01   4.000000E-01   4.000000E-01   4.000000E-01   4.000000E-01   4.000000E-01   4.000000E-01   4.000000E-01   4.000000E-01   4.000000E-01   4.000000E-01   4.000000E-01   4.000000E-01   4.000000E-01   4.000000E-01   4.000000E-01   4.000000E-01   4.000000E-01   4.000000E-01   4.000000E-01   4.000000E-01   4.000000E-01   4.000000E-01   4.000000E-01   4.000000E-01   4.000000E-01   4.000000E-01   4.000000E-01   4.000000E-01   4.000000E-01   4.000000E-01   4.000000E-01   4.000000E-01   4.000000E-01   4.000000E-01   4.000000E-01   4.000000E-01   4.000000E-01   4.000000E-01   4.000000E-01   4.000000E-01   4.000000E-01   4.000000E-01   4.000000E-01   4.000000E-01   4.000000E-01   4.000000E-01   4.000000E-01   4.000000E-01   4.000000E-01   4.000000E-01   4.000000E-01   4.000000E-01   4.000000E-01   4.000000E-01   4.000000E-01   4.000000E-01   4.000000E-01   4.000000E-01   4.000000E-01   4.000000E-01   4.000000E-01   4.000000E-01   4.000000E-01   4.000000E-01   4.000000E-01   4.000000E-01   4.000000E-01   4.000000E-01   4.000000E-01   4.000000E-01   4.000000E-01   4.000000E-01   4.000000E-01   4.000000E-01   4.000000E-01   4.000000E-01   4.000000E-01   4.000000E-01   4.000000E-01   4.000000E-01   4.000000E-01   4.000000E-01   4.000000E-01   4.000000E-01   4.000000E-01   4.000000E-01   4.000000E-01   4.000000E-01   4.000000E-01   4.000000E-01   4.000000E-01   4.000000E-01   4.000000E-01   4.000000E-01   4.000000E-01   4.000000E-01   4.000000E-01   4.000000E-01   4.000000E-01   4.000000E-01   4.000000E-01   4.000000E-01   4.000000E-01   4.000000E-01   4.000000E-01   4.000000E-01   4.000000E-01   4.000000E-01   4.000000E-01   4.000000E-01   4.000000E-01   4.000000E-01   4.000000E-01   4.000000E-01   4.000000E-01   4.000000E-01   4.000000E-01   4.000000E-01   4.000000E-01   4.000000E-01   4.000000E-01   4.000000E-01   4.000000E-01   4.000000E-01   4.000000E-01   4.000000E-01   4.000000E-01   4.000000E-01   4.000000E-01   4.000000E-01   4.000000E-01   4.000000E-01   4.000000E-01   4.000000E-01   4.000000E-01   4.000000E-01   4.000000E-01   4.000000E-01   4.000000E-01   4.000000E-01   4.000000E-01   4.000000E-01   4.000000E-01   4.000000E-01   4.000000E-01   4.000000E-01   4.000000E-01   4.000000E-01   4.000000E-01   4.000000E-01   4.000000E-01   4.000000E-01   4.000000E-01   4.000000E-01   4.000000E-01   4.000000E-01   4.000000E-01   4.000000E-01   4.000000E-01   4.000000E-01   4.000000E-01   4.000000E-01   4.000000E-01   4.000000E-01   4.000000E-01   4.000000E-01   4.000000E-01   4.000000E-01   4.000000E-01   4.000000E-01   4.000000E-01   4.000000E-01   4.000000E-01   4.000000E-01   4.000000E-01   4.000000E-01   4.000000E-01   4.000000E-01   4.000000E-01   4.000000E-01   4.000000E-01   4.000000E-01   4.000000E-01   4.000000E-01   4.000000E-01   4.000000E-01   4.000000E-01   4.000000E-01   4.000000E-01   4.000000E-01   4.000000E-01   4.000000E-01   4.000000E-01   4.000000E-01   4.000000E-01   4.000000E-01   4.000000E-01   4.000000E-01   4.000000E-01   4.000000E-01   4.000000E-01   4.000000E-01   4.000000E-01   4.000000E-01   4.000000E-01   4.000000E-01   4.000000E-01   4.000000E-01   4.000000E-01   4.000000E-01   4.000000E-01   4.000000E-01   4.000000E-01   4.000000E-01   4.000000E-01   4.000000E-01   4.000000E-01   4.000000E-01   4.000000E-01   4.000000E-01   4.000000E-01   4.000000E-01   4.000000E-01   4.000000E-01   4.000000E-01   4.000000E-01   4.000000E-01   4.000000E-01   4.000000E-01   4.000000E-01   4.000000E-01   4.000000E-01   4.000000E-01   4.000000E-01   4.000000E-01   4.000000E-01   4.000000E-01   4.000000E-01   4.000000E-01   4.000000E-01   4.000000E-01   4.000000E-01   4.000000E-01   4.000000E-01   4.000000E-01   4.000000E-01   4.000000E-01   4.000000E-01   4.000000E-01   4.000000E-01   4.000000E-01   4.000000E-01   4.000000E-01   4.000000E-01   4.000000E-01   4.000000E-01   4.000000E-01   4.000000E-01   4.000000E-01   4.000000E-01   4.000000E-01   4.000000E-01   4.000000E-01   4.000000E-01   4.000000E-01   4.000000E-01   4.000000E-01   4.000000E-01   4.000000E-01   4.000000E-01   4.000000E-01   4.000000E-01   4.000000E-01   4.000000E-01   4.000000E-01   4.000000E-01   4.000000E-01   4.000000E-01   4.000000E-01   4.000000E-01   4.000000E-01   4.000000E-01   4.000000E-01   4.000000E-01   4.000000E-01   4.000000E-01   4.000000E-01   4.000000E-01   4.000000E-01   4.000000E-01   4.000000E-01   4.000000E-01   4.000000E-01   4.000000E-01   4.000000E-01   4.000000E-01   4.000000E-01   4.000000E-01   4.000000E-01   4.000000E-01   4.000000E-01   4.000000E-01   4.000000E-01   4.000000E-01   4.000000E-01   4.000000E-01   4.000000E-01   4.000000E-01   4.000000E-01   4.000000E-01   4.000000E-01   4.000000E-01   4.000000E-01   4.000000E-01   4.000000E-01   4.000000E-01   4.000000E-01   4.000000E-01   4.000000E-01   4.000000E-01   4.000000E-01   4.000000E-01   4.000000E-01   4.000000E-01   4.000000E-01   4.000000E-01   4.000000E-01   4.000000E-01   4.000000E-01   4.000000E-01   4.000000E-01   4.000000E-01   4.000000E-01   4.000000E-01   4.000000E-01   4.000000E-01   4.000000E-01   4.000000E-01   4.000000E-01   4.000000E-01   4.000000E-01   4.000000E-01   4.000000E-01   4.000000E-01   4.000000E-01   4.000000E-01   4.000000E-01   4.000000E-01   4.000000E-01   4.000000E-01   4.000000E-01   4.000000E-01   4.000000E-01   4.000000E-01   4.000000E-01   4.000000E-01   4.000000E-01   4.000000E-01   4.000000E-01   4.000000E-01   4.000000E-01   4.000000E-01   4.000000E-01   4.000000E-01   4.000000E-01   4.000000E-01   4.000000E-01   4.000000E-01   4.000000E-01   4.000000E-01   4.000000E-01   4.000000E-01   4.000000E-01   4.000000E-01   4.000000E-01   4.000000E-01   4.000000E-01   4.000000E-01   4.000000E-01   4.000000E-01   4.000000E-01   4.000000E-01   4.000000E-01   4.000000E-01   4.000000E-01   4.000000E-01   4.000000E-01   4.000000E-01   4.000000E-01   4.000000E-01   4.000000E-01   4.000000E-01   4.000000E-01   4.000000E-01   4.000000E-01   4.000000E-01   4.000000E-01   4.000000E-01   4.000000E-01   4.000000E-01   4.000000E-01   4.000000E-01   4.000000E-01   4.000000E-01   4.000000E-01   4.000000E-01   4.000000E-01   4.000000E-01   4.000000E-01   4.000000E-01   4.000000E-01   4.000000E-01   4.000000E-01   4.000000E-01   4.000000E-01   4.000000E-01   4.000000E-01   4.000000E-01   4.000000E-01   4.000000E-01   4.000000E-01   4.000000E-01   4.000000E-01   4.000000E-01   4.000000E-01   4.000000E-01   4.000000E-01   4.000000E-01   4.000000E-01   4.000000E-01   4.000000E-01   4.000000E-01   4.000000E-01   4.000000E-01   4.000000E-01   4.000000E-01   4.000000E-01   4.000000E-01   4.000000E-01   4.000000E-01   4.000000E-01   4.000000E-01   4.000000E-01   4.000000E-01   4.000000E-01   4.000000E-01   4.000000E-01   4.000000E-01   4.000000E-01   4.000000E-01   4.000000E-01   4.000000E-01   4.000000E-01   4.000000E-01   4.000000E-01   4.000000E-01   4.000000E-01   4.000000E-01   4.000000E-01   4.000000E-01   4.000000E-01   4.000000E-01   4.000000E-01   4.000000E-01   4.000000E-01   4.000000E-01   4.000000E-01   4.000000E-01   4.000000E-01   4.000000E-01   4.000000E-01   4.000000E-01   4.000000E-01   4.000000E-01   4.000000E-01   4.000000E-01   4.000000E-01   4.000000E-01   4.000000E-01   4.000000E-01   4.000000E-01   4.000000E-01   4.000000E-01   4.000000E-01   4.000000E-01   4.000000E-01   4.000000E-01   4.000000E-01   4.000000E-01   4.000000E-01   4.000000E-01   4.000000E-01   4.000000E-01   4.000000E-01   4.000000E-01   4.000000E-01   4.000000E-01   4.000000E-01   4.000000E-01   4.000000E-01   4.000000E-01   4.000000E-01   4.000000E-01   4.000000E-01   4.000000E-01   4.000000E-01   4.000000E-01   4.000000E-01   4.000000E-01   4.000000E-01   4.000000E-01   4.000000E-01   4.000000E-01   4.000000E-01   4.000000E-01   4.000000E-01   4.000000E-01   4.000000E-01   4.000000E-01   4.000000E-01   4.000000E-01   4.000000E-01   4.000000E-01   4.000000E-01   4.000000E-01   4.000000E-01   4.000000E-01   4.000000E-01   4.000000E-01   4.000000E-01   4.000000E-01   4.000000E-01   4.000000E-01   4.000000E-01   4.000000E-01   4.000000E-01   4.000000E-01   4.000000E-01   4.000000E-01   4.000000E-01   4.000000E-01   4.000000E-01   4.000000E-01   4.000000E-01   4.000000E-01   4.000000E-01   4.000000E-01   4.000000E-01   4.000000E-01   4.000000E-01   4.000000E-01   4.000000E-01   4.000000E-01   4.000000E-01   4.000000E-01   4.000000E-01   4.000000E-01   4.000000E-01   4.000000E-01   4.000000E-01   4.000000E-01   4.000000E-01   4.000000E-01   4.000000E-01   4.000000E-01   4.000000E-01   4.000000E-01   4.000000E-01   4.000000E-01   4.000000E-01   4.000000E-01   4.000000E-01   4.000000E-01   4.000000E-01   4.000000E-01   4.000000E-01   4.000000E-01   4.000000E-01   4.000000E-01   4.000000E-01   4.000000E-01   4.000000E-01   4.000000E-01   4.000000E-01   4.000000E-01   4.000000E-01   4.000000E-01   4.000000E-01   4.000000E-01   4.000000E-01   4.000000E-01   4.000000E-01   4.000000E-01   4.000000E-01   4.000000E-01   4.000000E-01   4.000000E-01   4.000000E-01   4.000000E-01   4.000000E-01   4.000000E-01   4.000000E-01   4.000000E-01   4.000000E-01   4.000000E-01   4.000000E-01   4.000000E-01   4.000000E-01   4.000000E-01   4.000000E-01   4.000000E-01   4.000000E-01   4.000000E-01   4.000000E-01   4.000000E-01   4.000000E-01   4.000000E-01   4.000000E-01   4.000000E-01   4.000000E-01   4.000000E-01   4.000000E-01   4.000000E-01   4.000000E-01   4.000000E-01   4.000000E-01   4.000000E-01   4.000000E-01   4.000000E-01   4.000000E-01   4.000000E-01   4.000000E-01   4.000000E-01   4.000000E-01   4.000000E-01   4.000000E-01   4.000000E-01   4.000000E-01   4.000000E-01   4.000000E-01   4.000000E-01   4.000000E-01   4.000000E-01   4.000000E-01   4.000000E-01   4.000000E-01   4.000000E-01   4.000000E-01   4.000000E-01   4.000000E-01   4.000000E-01   4.000000E-01   4.000000E-01   4.000000E-01   4.000000E-01   4.000000E-01   4.000000E-01   4.000000E-01   4.000000E-01   4.000000E-01   4.000000E-01   4.000000E-01   4.000000E-01   4.000000E-01   4.000000E-01   4.000000E-01   4.000000E-01   4.000000E-01   