<?xml version="1.0"?>
<!-- Time =  1.1003776260280924E+00s -->
<VTKFile type="PolyData" version="0.1" byte_order="LittleEndian">
<PolyData>
<Piece NumberOfPoints="0000002400" NumberOfVerts="0" NumberOfLines="0" NumberOfStrips="0" NumberOfPolys="0">
<Points>
<DataArray type="Float32" Name="Position" NumberOfComponents="3" format="ascii">
  8.280537E-01   2.042849E-01   2.537626E-01   3.164272E+00   2.003940E-01   7.753413E-01   4.342410E+00   2.167406E-01   2.259139E-01   5.236781E+00   2.018342E-01   4.467788E-01   6.154632E+00   2.047186E-01   2.090247E-01   7.833104E+00   2.456135E+00   7.143496E-01   7.127391E+00   1.450854E+00   2.194059E-01   2.816445E+00   1.650848E+00   2.626637E+00   1.178903E+01   3.831173E+00   4.910063E-01   6.261028E+00   2.478759E-01   9.800576E-01   1.244740E+01   5.321465E-01   4.025197E+00   5.970233E+00   1.129208E+00   6.665373E-01   1.749020E+00   2.062184E-01   1.177050E+00   5.258809E+00   5.220858E-01   7.359408E-01   4.791741E+00   6.038477E-01   3.731652E+00   3.607827E+00   1.014724E+00   1.807662E+00   2.754184E+00   5.182385E-01   2.798152E+00   4.759022E+00   2.014874E-01   1.921589E+00   5.054255E+00   1.010130E+00   4.441375E+00   1.394989E+01   4.047952E-01   1.882085E+00   1.222014E+01   5.056792E+00   4.255230E+00   6.531844E+00   1.663531E+01   2.336067E+00   1.277980E+01   1.667496E+01   2.629316E+00   9.877378E+00   1.610684E+00   6.500517E-01   3.756945E+00   1.447865E+00   1.632677E+00   5.637008E+00   1.603188E+00   1.018683E+00   8.147244E+00   6.766577E+00   1.253182E+00   7.707632E+00   3.864328E+00   2.266287E-01   6.768638E+00   1.879807E+00   1.039460E+00   6.332663E+00   7.122419E+00   1.679109E+00   7.390609E+00   1.291145E+00   3.124813E+00   7.426606E+00   1.017825E+00   1.898274E+00   8.863747E+00   5.438781E-01   9.123254E-01   9.110153E-01   2.388640E-01   1.677832E+00   4.475549E-01   3.060058E-01   1.462940E+00   3.913147E+00   2.479660E-01   2.003505E-01   4.885904E+00   6.957779E-01   4.557987E-01   5.253479E+00   5.605984E-01   2.403714E-01   7.139746E+00   4.014836E-01   2.043815E-01   8.694254E+00   1.011440E+01   2.404716E+00   1.190328E+00   6.688267E-01   1.944357E+00   6.924942E+00   1.016349E+01   2.531633E+00   7.061671E+00   1.094225E+00   9.155159E-01   3.727005E+00   1.456286E+00   2.094681E+00   1.009636E+01   1.619836E+01   4.486462E+00   3.887446E+00   2.890518E+00   2.248555E+00   6.433993E+00   1.424126E+00   7.450380E-01   1.043639E+01   7.587829E+00   1.269931E+00   4.010495E+00   1.183519E+01   9.550513E-01   3.071712E+00   3.547482E-01   3.982975E+00   6.151633E+00   2.006049E-01   3.467590E+00   3.479888E+00   8.013903E+00   1.944872E-01   4.806760E+00   5.430185E-01   1.573273E+00   6.844400E+00   8.021153E+00   1.383990E+00   6.423762E+00   1.378543E+00   1.736600E+00   9.516203E+00   1.436538E+01   3.188564E+00   5.423964E+00   6.215403E-01   1.934057E+00   9.641476E+00   5.494929E+00   2.358793E+00   1.361802E+01   4.512114E+00   3.284564E+00   9.513794E+00   1.525239E+01   9.021109E-01   6.772820E+00   2.137651E+00   6.197965E-01   8.771196E+00   1.163485E+00   2.841666E-01   7.734622E+00   3.815801E+00   1.893212E+00   8.788510E+00   4.602981E-01   1.729645E+00   1.227821E+00   2.300159E-01   6.915459E-01   1.746066E+00   2.378920E-01   2.506458E-01   2.790115E+00   2.209931E-01   5.688795E-01   6.423771E+00   2.001270E+00   1.781721E+00   6.552472E+00   9.648304E-01   3.505470E-01   6.639883E+00   2.786546E-01   2.448783E-01   7.022623E+00   1.021761E+00   2.684752E-01   4.983223E+00   9.327126E+00   8.376660E-01   5.064157E+00   2.085877E+00   1.573099E+00   3.099044E+00   1.427106E+00   1.424021E+00   6.983006E+00   4.186719E+00   1.240536E+00   1.213690E+01   8.986581E+00   9.335527E-01   6.358271E+00   2.412216E-01   2.098661E+00   4.130825E+00   8.079333E-01   4.070544E+00   3.613018E+00   1.406689E+00   3.403344E+00   4.710468E+00   1.299581E+01   1.457181E+00   6.916528E+00   1.663412E+01   9.104908E-01   3.459609E+00   2.169309E-01   1.906949E+00   5.528151E+00   6.083189E-01   3.846848E+00   9.560470E+00   1.823738E+01   3.976107E+00   1.290725E+01   6.758309E-01   2.341836E+00   3.352274E+00   6.083103E-01   1.240233E+00   2.723045E+00   9.984120E-01   2.433313E+00   2.982197E+00   5.241285E-01   2.440902E+00   8.798948E+00   2.077290E+01   2.824595E+00   6.403664E+00   1.959629E+00   1.239962E+00   8.449146E+00   7.114848E-01   1.318015E+00   6.319205E+00   5.824607E+00   1.486841E+00   9.140932E+00   1.430754E+01   7.668698E-01   1.013240E+01   7.196646E+00   9.670739E-01   1.126043E+01   1.276067E+01   4.879077E+00   9.402913E+00   4.452240E-01   3.238334E-01   1.181802E+01   4.818836E-01   1.123215E+00   1.942287E+00   4.181511E-01   1.454305E+00   4.539013E+00   2.186709E-01   7.667785E-01   4.941845E+00   2.270700E-01   7.315124E-01   7.032624E+00   4.545760E-01   1.664565E+00   6.640315E+00   1.676590E+00   1.413299E+00   4.538636E+00   1.176898E+01   1.417898E+00   2.073860E+00   7.814555E-01   3.074826E+00   3.205954E+00   1.644446E+00   1.032850E+00   6.943495E+00   3.253625E-01   1.265165E+00   1.250379E+00   3.315865E-01   2.597858E-01   5.452186E+00   5.107499E-01   4.286460E+00   1.080260E+01   1.937682E-01   3.993464E+00   1.383024E+00   3.448704E-01   3.376503E+00   6.713426E+00   2.609595E+00   1.613367E+00   4.640461E+00   2.066265E-01   4.143212E+00   2.089692E+00   7.458396E+00   1.857109E+00   5.195075E+00   1.002792E+01   8.041162E-01   3.856006E+00   5.209315E-01   3.818412E+00   5.829030E+00   8.427396E-01   2.277536E+00   2.020809E+00   1.090033E+00   8.575388E-01   5.416237E+00   4.880756E+00   2.694425E+00   5.032046E+00   1.658134E+01   2.245476E+00   6.845367E+00   3.395231E+00   3.048280E+00   1.633319E+00   9.860916E-01   3.731739E+00   5.125743E+00   2.029062E+00   3.807420E+00   4.367926E+00   3.750736E+00   1.315357E+00   1.152718E+01   1.082322E+01   7.596138E-01   7.669104E+00   1.668931E+01   1.331787E+00   8.108415E+00   5.511287E+00   1.315439E+00   7.262005E+00   5.748535E-01   5.408397E-01   1.194395E+01   3.392536E-01   3.143302E+00   1.312808E+01   1.901718E-01   8.207649E-01   1.529806E+00   2.253144E-01   2.395740E+00   6.056446E+00   5.699982E-01   2.631961E+00   5.120667E+00   1.059531E+00   3.610483E-01   6.900328E+00   2.104220E-01   2.129268E+00   4.875469E+00   8.425258E+00   1.917341E+00   7.134199E+00   3.599092E+00   1.335962E+00   2.711983E+00   1.550069E+00   4.044853E+00   6.455533E+00   6.181976E+00   1.354771E+00   3.205106E+00   2.670954E-01   4.573650E+00   7.196156E+00   3.014098E+00   4.192777E+00   7.588315E+00   1.208840E+01   4.343185E+00   9.565593E+00   2.012244E-01   1.761489E+00   6.128713E+00   2.810899E-01   1.459439E+00   1.047443E+01   9.092037E+00   2.908624E+00   6.981644E+00   6.556258E+00   1.132358E+00   1.138315E+01   7.883131E-01   1.933050E+00   3.900099E+00   2.226637E+00   2.960820E+00   4.305851E+00   2.018610E-01   4.391216E+00   8.800602E+00   2.002729E-01   1.227213E+00   3.894919E+00   2.117594E-01   1.921945E+00   2.776527E+00   5.076644E-01   4.538522E+00   1.094630E+01   7.011745E+00   4.812416E+00   1.447886E+00   2.303577E+00   2.584520E+00   5.025362E+00   1.073984E+00   1.977819E+00   4.277385E+00   1.471188E+01   2.742093E+00   5.142207E+00   8.107026E+00   1.769203E+00   7.395545E+00   1.321676E+00   8.028076E-01   9.779221E+00   3.849551E-01   1.213029E+00   1.148171E+01   8.753769E-01   3.121771E+00   1.404326E+01   4.472363E-01   4.738486E-01   3.813299E+00   2.004773E-01   9.213144E-01   4.786413E+00   3.460368E+00   1.310816E+00   4.772097E+00   2.331083E-01   3.650922E-01   5.902281E+00   3.299654E+00   2.554685E+00   7.026676E+00   7.598032E+00   2.042441E+00   2.996711E-01   7.434012E-01   7.328351E-01   3.809311E+00   1.256114E+00   8.754286E-01   6.396282E+00   1.032649E+01   4.405454E-01   1.603830E+00   3.669484E-01   1.822771E+00   1.065106E+01   1.485140E+00   3.883821E+00   3.524320E+00   2.719045E+00   1.122920E+00   1.075729E+01   8.528834E+00   4.708756E+00   2.366737E+00   2.266510E-01   3.531790E+00   4.210330E+00   2.321981E-01   1.121977E+00   5.979853E+00   5.359881E-01   8.219239E-01   1.455444E+01   1.409610E+00   1.820178E+00   1.062081E+01   1.160281E+00   1.300487E+00   7.876435E+00   2.053633E-01   2.531303E+00   8.184914E+00   2.934009E-01   3.350949E-01   1.415646E+01   1.828314E+00   3.752980E+00   5.360782E+00   9.913866E+00   3.035689E+00   3.949242E+00   8.851534E+00   1.294439E+00   1.200104E+01   1.575638E+00   4.440686E+00   8.852809E+00   1.634481E+01   3.588712E+00   3.378784E+00   1.243871E+01   2.609080E+00   8.493458E+00   1.277110E+01   2.513690E+00   3.296408E+00   8.289617E+00   1.104723E+00   6.763378E+00   1.302607E+01   1.420589E+00   2.256612E-01   6.068235E+00   2.103438E+00   9.477313E+00   5.023897E-01   7.817204E-01   1.439359E+01   4.269210E-01   1.052280E+00   8.090828E-01   2.003112E-01   2.071233E+00   3.555211E+00   1.982260E-01   6.054663E-01   5.460525E+00   1.996555E-01   1.395403E+00   6.514446E+00   2.018702E-01   1.532391E+00   1.091930E+01   1.098401E+01   8.633443E-01   6.379706E+00   6.358336E-01   8.901847E-01   2.598153E+00   4.136935E+00   4.039313E+00   6.407627E+00   5.774786E-01   4.109378E-01   5.461970E+00   1.973284E-01   2.892514E+00   1.264650E+00   6.364728E-01   1.338521E+00   1.000195E+01   6.657256E-01   1.788086E+00   7.107045E-01   7.899500E-01   1.435429E+00   6.975765E+00   1.222211E+01   4.469571E+00   1.138474E+01   5.350230E-01   3.663063E+00   7.058881E+00   3.112392E+00   4.877394E+00   1.375423E+01   6.517561E-01   9.553325E-01   1.762031E+00   2.198975E+00   1.887706E+00   3.921990E+00   6.295424E-01   2.221630E+00   1.103741E+01   6.727487E-01   2.850770E+00   3.707599E+00   6.416807E+00   3.292269E+00   3.386959E+00   8.698324E+00   3.953307E+00   4.103172E+00   8.228235E-01   1.180831E+00   2.623027E-01   6.296303E-01   1.642525E+00   9.091316E+00   1.864760E+01   1.382011E+00   8.603737E+00   2.049768E+00  
[...]
<PointData Scalars="Diameter" Vectors="Velocity">
<DataArray type="Float32" Name="Diameter" format="ascii">
  4.000000E-01   4.000000E-01   4.000000E-01   4.000000E-01   4.000000E-01   4.000000E-01   4.000000E-01   4.000000E-01   4.000000E-01   4.000000E-01   4.000000E-01   4.000000E-01   4.000000E-01   4.000000E-01   4.000000E-01   4.000000E-01   4.000000E-01   4.000000E-01   4.000000E-01   4.000000E-01   4.000000E-01   4.000000E-01   4.000000E-01   4.000000E-01   4.000000E-01   4.000000E-01   4.000000E-01   4.000000E-01   4.000000E-01   4.000000E-01   4.000000E-01   4.000000E-01   4.000000E-01   4.000000E-01   4.000000E-01   4.000000E-01   4.000000E-01   4.000000E-01   4.000000E-01   4.000000E-01   4.000000E-01   4.000000E-01   4.000000E-01   4.000000E-01   4.000000E-01   4.000000E-01   4.000000E-01   4.000000E-01   4.000000E-01   4.000000E-01   4.000000E-01   4.000000E-01   4.000000E-01   4.000000E-01   4.000000E-01   4.000000E-01   4.000000E-01   4.000000E-01   4.000000E-01   4.000000E-01   4.000000E-01   4.000000E-01   4.000000E-01   4.000000E-01   4.000000E-01   4.000000E-01   4.000000E-01   4.000000E-01   4.000000E-01   4.000000E-01   4.000000E-01   4.000000E-01   4.000000E-01   4.000000E-01   4.000000E-01   4.000000E-01   4.000000E-01   4.000000E-01   4.000000E-01   4.000000E-01   4.000000E-01   4.000000E-01   4.000000E-01   4.000000E-01   4.000000E-01   4.000000E-01   4.000000E-01   4.000000E-01   4.000000E-01   4.000000E-01   4.000000E-01   4.000000E-01   4.000000E-01   4.000000E-01   4.000000E-01   4.000000E-01   4.000000E-01   4.000000E-01   4.000000E-01   4.000000E-01   4.000000E-01   4.000000E-01   4.000000E-01   4.000000E-01   4.000000E-01   4.000000E-01   4.000000E-01   4.000000E-01   4.000000E-01   4.000000E-01   4.000000E-01   4.000000E-01   4.000000E-01   4.000000E-01   4.000000E-01   4.000000E-01   4.000000E-01   4.000000E-01   4.000000E-01   4.000000E-01   4.000000E-01   4.000000E-01   4.000000E-01   4.000000E-01   4.000000E-01   4.000000E-01   4.000000E-01   4.000000E-01   4.000000E-01   4.000000E-01   4.000000E-01   4.000000E-01   4.000000E-01   4.000000E-01   4.000000E-01   4.000000E-01   4.000000E-01   4.000000E-01   4.000000E-01   4.000000E-01   4.000000E-01   4.000000E-01   4.000000E-01   4.000000E-01   4.000000E-01   4.000000E-01   4.000000E-01   4.000000E-01   4.000000E-01   4.000000E-01   4.000000E-01   4.000000E-01   4.000000E-01   4.000000E-01   4.000000E-01   4.000000E-01   4.000000E-01   4.000000E-01   4.000000E-01   4.000000E-01   4.000000E-01   4.000000E-01   4.000000E-01   4.000000E-01   4.000000E-01   4.000000E-01   4.000000E-01   4.000000E-01   4.000000E-01   4.000000E-01   4.000000E-01   4.000000E-01   4.000000E-01   4.000000E-01   4.000000E-01   4.000000E-01   4.000000E-01   4.000000E-01   4.000000E-01   4.000000E-01   4.000000E-01   4.000000E-01   4.000000E-01   4.000000E-01   4.000000E-01   4.000000E-01   4.000000E-01   4.000000E-01   4.000000E-01   4.000000E-01   4.000000E-01   4.000000E-01   4.000000E-01   4.000000E-01   4.000000E-01   4.000000E-01   4.000000E-01   4.000000E-01   4.000000E-01   4.000000E-01   4.000000E-01   4.000000E-01   4.000000E-01   4.000000E-01   4.000000E-01   4.000000E-01   4.000000E-01   4.000000E-01   4.000000E-01   4.000000E-01   4.000000E-01   4.000000E-01   4.000000E-01   4.000000E-01   4.000000E-01   4.000000E-01   4.000000E-01   4.000000E-01   4.000000E-01   4.000000E-01   4.000000E-01   4.000000E-01   4.000000E-01   4.000000E-01   4.000000E-01   4.000000E-01   4.000000E-01   4.000000E-01   4.000000E-01   4.000000E-01   4.000000E-01   4.000000E-01   4.000000E-01   4.000000E-01   4.000000E-01   4.000000E-01   4.000000E-01   4.000000E-01   4.000000E-01   4.000000E-01   4.000000E-01   4.000000E-01   4.000000E-01   4.000000E-01   4.000000E-01   4.000000E-01   4.000000E-01   4.000000E-01   4.000000E-01   4.000000E-01   4.000000E-01   4.000000E-01   4.000000E-01   4.000000E-01   4.000000E-01   4.000000E-01   4.000000E-01   4.000000E-01   4.000000E-01   4.000000E-01   4.000000E-01   4.000000E-01   4.000000E-01   4.000000E-01   4.000000E-01   4.000000E-01   4.000000E-01   4.000000E-01   4.000000E-01   4.000000E-01   4.000000E-01   4.000000E-01   4.000000E-01   4.000000E-01   4.000000E-01   4.000000E-01   4.000000E-01   4.000000E-01   4.000000E-01   4.000000E-01   4.000000E-01   4.000000E-01   4.000000E-01   4.000000E-01   4.000000E-01   4.000000E-01   4.000000E-01   4.000000E-01   4.000000E-01   4.000000E-01   4.000000E-01   4.000000E-01   4.000000E-01   4.000000E-01   4.000000E-01   4.000000E-01   4.000000E-01   4.000000E-01   4.000000E-01   4.000000E-01   4.000000E-01   4.000000E-01   4.000000E-01   4.000000E-01   4.000000E-01   4.000000E-01   4.000000E-01   4.000000E-01   4.000000E-01   4.000000E-01   4.000000E-01   4.000000E-01   4.000000E-01   4.000000E-01   4.000000E-01   4.000000E-01   4.000000E-01   4.000000E-01   4.000000E-01   4.000000E-01   4.000000E-01   4.000000E-01   4.000000E-01   4.000000E-01   4.000000E-01   4.000000E-01   4.000000E-01   4.000000E-01   4.000000E-01   4.000000E-01   4.000000E-01   4.000000E-01   4.000000E-01   4.000000E-01   4.000000E-01   4.000000E-01   4.000000E-01   4.000000E-01   4.000000E-01   4.000000E-01   4.000000E-01   4.000000E-01   4.000000E-01   4.000000E-01   4.000000E-01   4.000000E-01   4.000000E-01   4.000000E-01   4.000000E-01   4.000000E-01   4.000000E-01   4.000000E-01   4.000000E-01   4.000000E-01   4.000000E-01   4.000000E-01   4.000000E-01   4.000000E-01   4.000000E-01   4.000000E-01   4.000000E-01   4.000000E-01   4.000000E-01   4.000000E-01   4.000000E-01   4.000000E-01   4.000000E-01   4.000000E-01   4.000000E-01   4.000000E-01   4.000000E-01   4.000000E-01   4.000000E-01   4.000000E-01   4.000000E-01   4.000000E-01   4.000000E-01   4.000000E-01   4.000000E-01   4.000000E-01   4.000000E-01   4.000000E-01   4.000000E-01   4.000000E-01   4.000000E-01   4.000000E-01   4.000000E-01   4.000000E-01   4.000000E-01   4.000000E-01   4.000000E-01   4.000000E-01   4.000000E-01   4.000000E-01   4.000000E-01   4.000000E-01   4.000000E-01   4.000000E-01   4.000000E-01   4.000000E-01   4.000000E-01   4.000000E-01   4.000000E-01   4.000000E-01   4.000000E-01   4.000000E-01   4.000000E-01   4.000000E-01   4.000000E-01   4.000000E-01   4.000000E-01   4.000000E-01   4.000000E-01   4.000000E-01   4.000000E-01   4.000000E-01   4.000000E-01   4.000000E-01   4.000000E-01   4.000000E-01   4.000000E-01   4.000000E-01   4.000000E-01   4.000000E-01   4.000000E-01   4.000000E-01   4.000000E-01   4.000000E-01   4.000000E-01   4.000000E-01   4.000000E-01   4.000000E-01   4.000000E-01   4.000000E-01   4.000000E-01   4.000000E-01   4.000000E-01   4.000000E-01   4.000000E-01   4.000000E-01   4.000000E-01   4.000000E-01   4.000000E-01   4.000000E-01   4.000000E-01   4.000000E-01   4.000000E-01   4.000000E-01   4.000000E-01   4.000000E-01   4.000000E-01   4.000000E-01   4.000000E-01   4.000000E-01   4.000000E-01   4.000000E-01   4.000000E-01   4.000000E-01   4.000000E-01   4.000000E-01   4.000000E-01   4.000000E-01   4.000000E-01   4.000000E-01   4.000000E-01   4.000000E-01   4.000000E-01   4.000000E-01   4.000000E-01   4.000000E-01   4.000000E-01   4.000000E-01   4.000000E-01   4.000000E-01   4.000000E-01   4.000000E-01   4.000000E-01   4.000000E-01   4.000000E-01   4.000000E-01   4.000000E-01   4.000000E-01   4.000000E-01   4.000000E-01   4.000000E-01   4.000000E-01   4.000000E-01   4.000000E-01   4.000000E-01   4.000000E-01   4.000000E-01   4.000000E-01   4.000000E-01   4.000000E-01   4.000000E-01   4.000000E-01   4.000000E-01   4.000000E-01   4.000000E-01   4.000000E-01   4.000000E-01   4.000000E-01   4.000000E-01   4.000000E-01   4.000000E-01   4.000000E-01   4.000000E-01   4.000000E-01   4.000000E-01   4.000000E-01   4.000000E-01   4.000000E-01   4.000000E-01   4.000000E-01   4.000000E-01   4.000000E-01   4.000000E-01   4.000000E-01   4.000000E-01   4.000000E-01   4.000000E-01   4.000000E-01   4.000000E-01   4.000000E-01   4.000000E-01   4.000000E-01   4.000000E-01   4.000000E-01   4.000000E-01   4.000000E-01   4.000000E-01   4.000000E-01   4.000000E-01   4.000000E-01   4.000000E-01   4.000000E-01   4.000000E-01   4.000000E-01   4.000000E-01   4.000000E-01   4.000000E-01   4.000000E-01   4.000000E-01   4.000000E-01   4.000000E-01   4.000000E-01   4.000000E-01   4.000000E-01   4.000000E-01   4.000000E-01   4.000000E-01   4.000000E-01   4.000000E-01   4.000000E-01   4.000000E-01   4.000000E-01   4.000000E-01   4.000000E-01   4.000000E-01   4.000000E-01   4.000000E-01   4.000000E-01   4.000000E-01   4.000000E-01   4.000000E-01   4.000000E-01   4.000000E-01   4.000000E-01   4.000000E-01   4.000000E-01   4.000000E-01   4.000000E-01   4.000000E-01   4.000000E-01   4.000000E-01   4.000000E-01   4.000000E-01   4.000000E-01   4.000000E-01   4.000000E-01   4.000000E-01   4.000000E-01   4.000000E-01   4.000000E-01   4.000000E-01   4.000000E-01   4.000000E-01   4.000000E-01   4.000000E-01   4.000000E-01   4.000000E-01   4.000000E-01   4.000000E-01   4.000000E-01   4.000000E-01   4.000000E-01   4.000000E-01   4.000000E-01   4.000000E-01   4.000000E-01   4.000000E-01   4.000000E-01   4.000000E-01   4.000000E-01   4.000000E-01   4.000000E-01   4.000000E-01   4.000000E-01   4.000000E-01   4.000000E-01   4.000000E-01   4.000000E-01   4.000000E-01   4.000000E-01   4.000000E-01   4.000000E-01   4.000000E-01   4.000000E-01   4.000000E-01   4.000000E-01   4.000000E-01   4.000000E-01   4.000000E-01   4.000000E-01   4.000000E-01   4.000000E-01   4.000000E-01   4.000000E-01   4.000000E-01   4.000000E-01   4.000000E-01   4.000000E-01   4.000000E-01   4.000000E-01   4.000000E-01   4.000000E-01   4.000000E-01   4.000000E-01   4.000000E-01   4.000000E-01   4.000000E-01   4.000000E-01   4.000000E-01   4.000000E-01   4.000000E-01   4.000000E-01   4.000000E-01   4.000000E-01   4.000000E-01   4.000000E-01   4.000000E-01   4.000000E-01   4.000000E-01   4.000000E-01   4.000000E-01   4.000000E-01   4.000000E-01   4.000000E-01   4.000000E-01   4.000000E-01   4.000000E-01   4.000000E-01   4.000000E-01   4.000000E-01   4.000000E-01   4.000000E-01   4.000000E-01   4.000000E-01   4.000000E-01   4.000000E-01   4.000000E-01   4.000000E-01   4.000000E-01   4.000000E-01   4.000000E-01   4.000000E-01   4.000000E-01   4.000000E-01   4.000000E-01   4.000000E-01   4.000000E-01   4.000000E-01   4.000000E-01   4.000000E-01   4.000000E-01   4.000000E-01   4.000000E-01   4.000000E-01   4.000000E-01   4.000000E-01   4.000000E-01   4.000000E-01   4.000000E-01   4.000000E-01   4.000000E-01   4.000000E-01   4.000000E-01   4.000000E-01   4.000000E-01   4.000000E-01   4.000000E-01   4.000000E-01   4.000000E-01   4.000000E-01   4.000000E-01   4.000000E-01   4.000000E-01   4.000000E-01   4.000000E-01   4.000000E-01   4.000000E-01   4.000000E-01   4.000000E-01   4.000000E-01   4.000000E-01   4.000000E-01   4.000000E-01   4.000000E-01   4.000000E-01   4.000000E-01   4.000000E-01   4.000000E-01   4.000000E-01   4.000000E-01   4.000000E-01   4.000000E-01   4.000000E-01   4.000000E-01   4.000000E-01   4.000000E-01   4.000000E-01   4.000000E-01   4.000000E-01   4.000000E-01   4.000000E-01   4.000000E-01   4.000000E-01   4.000000E-01   4.000000E-01   4.000000E-01   4.000000E-01   4.000000E-01   4.000000E-01   4.000000E-01   4.000000E-01   4.000000E-01   4.000000E-01   4.000000E-01   4.000000E-01   4.000000E-01   4.000000E-01   4.000000E-01   4.000000E-01   4.000000E-01   4.000000E-01   4.000000E-01   4.000000E-01   4.000000E-01   4.000000E-01   4.000000E-01   4.000000E-01   4.000000E-01   4.000000E-01   4.000000E-01   4.000000E-01   4.000000E-01   4.000000E-01   4.000000E-01   4.000000E-01   4.000000E-01   4.000000E-01   4.000000E-01   4.000000E-01   4.000000E-01   4.000000E-01   4.000000E-01   4.000000E-01   4.000000E-01   4.000000E-01   4.000000E-01   4.000000E-01   4.000000E-01   4.000000E-01   4.000000E-01   4.000000E-01   4.000000E-01   4.000000E-01   4.000000E-01   4.000000E-01   4.000000E-01   4.000000E-01   4.000000E-01   4.000000E-01   4.000000E-01   4.000000E-01   4.000000E-01   4.000000E-01   4.000000E-01   4.000000E-01   4.000000E-01   4.000000E-01   4.000000E-01   4.000000E-01   4.000000E-01   4.000000E-01   4.000000E-01   4.000000E-01   4.000000E-01   4.000000E-01   4.000000E-01   4.000000E-01   4.000000E-01   4.000000E-01   4.000000E-01   4.000000E-01   4.000000E-01   4.000000E-01   4.000000E-01   4.000000E-01   4.000000E-01   4.000000E-01   4.000000E-01   4.000000E-01   4.000000E-01   4.000000E-01   4.000000E-01   4.000000E-01   4.000000E-01   4.000000E-01   4.000000E-01   4.000000E-01   4.000000E-01   4.000000E-01   4.000000E-01   4.000000E-01   4.000000E-01   4.000000E-01   4.000000E-01   4.000000E-01   4.000000E-01   4.000000E-01   4.000000E-01   4.000000E-01   4.000000E-01   4.000000E-01   4.000000E-01   4.000000E-01   4.000000E-01   4.000000E-01   4.000000E-01   4.000000E-01   4.000000E-01   4.000000E-01   4.000000E-01   4.000000E-01   4.000000E-01   4.000000E-01   4.000000E-01   4.000000E-01   4.000000E-01   4.000000E-01   4.000000E-01   4.000000E-01   4.000000E-01   4.000000E-01   4.000000E-01   4.000000E-01   4.000000E-01   4.000000E-01   4.000000E-01   4.000000E-01   4.000000E-01   4.000000E-01   4.000000E-01   4.000000E-01   4.000000E-01   4.000000E-01   4.000000E-01   4.000000E-01   4.000000E-01   4.000000E-01   4.000000E-01   4.000000E-01   4.000000E-01   4.000000E-01   4.000000E-01   4.000000E-01   4.000000E-01   4.000000E-01   4.000000E-01   4.000000E-01   4.000000E-01   4.000000E-01   4.000000E-01   4.000000E-01   4.000000E-01   4.000000E-01   4.000000E-01   4.000000E-01   4.000000E-01   4.000000E-01   4.000000E-01   4.000000E-01   4.000000E-01   4.000000E-01   4.000000E-01   4.000000E-01   4.000000E-01   4.000000E-01   4.000000E-01   4.000000E-01   4.000000E-01   4.000000E-01   4.000000E-01   4.000000E-01   4.000000E-01   4.000000E-01   4.000000E-01   4.000000E-01   4.000000E-01   4.000000E-01   4.000000E-01   4.000000E-01   4.000000E-01   4.000000E-01   4.000000E-01   4.000000E-01   4.000000E-01   4.000000E-01   4.000000E-01   4.000000E-01   4.000000E-01   4.000000E-01   4.000000E-01   4.000000E-01   4.000000E-01   4.000000E-01   4.000000E-01   4.000000E-01   4.000000E-01   4.000000E-01   4.000000E-01   4.000000E-01   4.000000E-01   4.000000E-01   4.000000E-01   4.000000E-01   4.000000E-01   4.000000E-01   4.000000E-01   4.000000E-01   4.000000E-01   4.000000E-01   4.000000E-01   4.000000E-01   4.000000E-01   4.000000E-01   4.000000E-01   4.000000E-01   4.000000E-01   4.000000E-01   4.000000E-01   4.000000E-01   4.000000E-01   4.000000E-01   4.000000E-01   4.000000E-01   4.000000E-01   4.000000E-01   4.000000E-01   4.000000E-01   4.000000E-01   4.000000E-01   4.000000E-01   4.000000E-01   4.000000E-01   4.000000E-01   4.000000E-01   4.000000E-01   4.000000E-01   4.000000E-01   4.000000E-01   4.000000E-01   4.000000E-01   4.000000E-01   4.000000E-01   4.000000E-01   4.000000E-01   4.000000E-01   4.000000E-01   4.000000E-01   4.000000E-01   4.000000E-01   4.000000E-01   4.000000E-01   4.000000E-01   4.000000E-01   4.000000E-01   4.000000E-01   4.000000E-01   4.000000E-01   4.000000E-01   4.000000E-01   4.000000E-01   4.000000E-01   4.000000E-01   4.000000E-01   4.000000E-01   4.000000E-01   4.000000E-01   4.000000E-01   4.000000E-01   4.000000E-01   4.000000E-01   4.000000E-01   4.000000E-01   4.000000E-01   4.000000E-01   4.000000E-01   4.000000E-01   4.000000E-01   4.000000E-01   4.000000E-01   4.000000E-01   4.000000E-01   4.000000E-01   4.000000E-01   4.000000E-01   4.000000E-01   4.000000E-01   4.000000E-01   4.000000E-01   4.000000E-01   4.000000E-01   4.000000E-01   4.000000E-01   4.000000E-01   4.000000E-01   4.000000E-01   4.000000E-01   4.000000E-01   4.000000E-01   4.000000E-01   4.000000E-01   4.000000E-01   4.000000E-01   4.000000E-01   4.000000E-01   4.000000E-01   4.000000E-01   4.000000E-01   4.000000E-01   4.000000E-01   4.000000E-01   4.000000E-01   4.000000E-01   4.000000E-01   4.000000E-01   4.000000E-01   4.000000E-01   4.000000E-01   4.000000E-01   4.000000E-01   4.000000E-01   4.000000E-01   4.000000E-01   4.000000E-01   4.000000E-01   4.000000E-01   4.000000E-01   4.000000E-01   4.000000E-01   4.000000E-01   4.000000E-01   4.000000E-01   4.000000E-01   4.000000E-01   4.000000E-01   4.000000E-01   4.000000E-01   4.000000E-01   4.000000E-01   4.000000E-01   4.000000E-01   4.000000E-01   4.000000E-01   4.000000E-01   4.000000E-01   4.000000E-01   4.000000E-01   4.000000E-01   4.000000E-01   4.000000E-01   4.000000E-01   4.000000E-01   4.000000E-01   4.000000E-01   4.000000E-01   4.000000E-01   4.000000E-01   4.000000E-01   4.000000E-01   4.000000E-01   4.000000E-01   4.000000E-01   4.000000E-01   4.000000E-01   4.000000E-01   4.000000E-01   4.000000E-01   4.000000E-01   4.000000E-01   4.000000E-01   4.000000E-01   4.000000E-01   4.000000E-01   4.000000E-01   4.000000E-01   4.000000E-01   4.000000E-01   4.000000E-01   4.000000E-01   4.000000E-01   4.000000E-01   4.000000E-01   4.000000E-01   4.000000E-01   4.000000E-01   4.000000E-01   4.000000E-01   4.000000E-01   4.000000E-01   4.000000E-01   4.000000E-01   4.000000E-01   4.000000E-01   4.000000E-01   4.000000E-01   4.000000E-01   4.000000E-01   4.000000E-01   4.000000E-01   4.000000E-01   4.000000E-01   4.000000E-01   4.000000E-01   4.000000E-01   4.000000E-01   4.000000E-01   4.000000E-01   4.000000E-01   4.000000E-01   4.000000E-01   4.000000E-01   4.000000E-01   4.000000E-01   4.000000E-01   4.000000E-01   4.000000E-01   4.000000E-01   4.000000E-01   4.000000E-01   4.000000E-01   4.000000E-01   4.000000E-01   4.000000E-01   4.000000E-01   4.000000E-01   4.000000E-01   4.000000E-01   4.000000E-01   4.000000E-01   4.000000E-01   4.000000E-01   4.000000E-01   4.000000E-01   4.000000E-01   4.000000E-01   4.000000E-01   4.000000E-01   4.000000E-01   4.000000E-01   4.000000E-01   4.000000E-01   4.000000E-01   4.000000E-01   4.000000E-01   4.000000E-01   4.000000E-01   4.000000E-01   4.000000E-01   4.000000E-01   4.000000E-01   4.000000E-01   4.000000E-01   4.000000E-01   4.000000E-01   4.000000E-01   4.000000E-01   4.000000E-01   4.000000E-01   4.000000E-01   4.000000E-01   4.000000E-01   4.000000E-01   4.000000E-01   4.000000E-01   4.000000E-01   4.000000E-01   4.000000E-01   4.000000E-01   4.000000E-01   4.000000E-01   4.000000E-01   4.000000E-01   4.000000E-01   4.000000E-01   4.000000E-01   4.000000E-01   4.000000E-01   4.000000E-01   4.000000E-01   4.000000E-01   4.000000E-01   4.000000E-01   4.000000E-01   4.000000E-01   4.000000E-01   4.000000E-01   4.000000E-01   4.000000E-01   4.000000E-01   4.000000E-01   4.000000E-01   4.000000E-01   4.000000E-01   4.000000E-01   4.000000E-01   4.000000E-01   4.000000E-01   4.000000E-01   4.000000E-01   4.000000E-01   4.000000E-01   4.000000E-01   4.000000E-01   4.000000E-01   4.000000E-01   4.000000E-01   4.000000E-01   4.000000E-01   4.000000E-01   4.000000E-01   4.000000E-01   4.000000E-01   4.000000E-01   4.000000E-01   4.000000E-01   4.000000E-01   4.000000E-01   4.000000E-01   4.000000E-01   4.000000E-01   4.000000E-01   4.000000E-01   4.000000E-01   4.000000E-01   4.000000E-01   4.000000E-01   4.000000E-01   4.000000E-01   4.000000E-01   4.000000E-01   4.000000E-01   4.000000E-01   4.000000E-01   4.000000E-01   4.000000E-01   4.000000E-01   4.000000E-01   4.000000E-01   4.000000E-01   4.000000E-01   4.000000E-01   4.000000E-01   4.000000E-01   4.000000E-01   4.000000E-01   4.000000E-01   4.000000E-01   4.000000E-01   4.000000E-01   4.000000E-01   4.000000E-01   4.000000E-01   4.000000E-01   4.000000E-01   4.000000E-01   4.000000E-01   4.000000E-01   4.000000E-01   4.000000E-01   4.000000E-01   4.000000E-01   4.000000E-01   4.000000E-01   4.000000E-01   4.000000E-01   4.000000E-01   4.000000E-01   4.000000E-01   4.000000E-01   4.000000E-01   4.000000E-01   4.000000E-01   4.000000E-01   4.000000E-01   4.000000E-01   4.000000E-01   4.000000E-01   4.000000E-01   4.000000E-01   4.000000E-01   4.000000E-01   4.000000E-01   4.000000E-01   