<?xml version="1.0"?>
<!-- Time =  4.0008976260278706E+00s -->
<VTKFile type="PolyData" version="0.1" byte_order="LittleEndian">
<PolyData>
<Piece NumberOfPoints="0000002400" NumberOfVerts="0" NumberOfLines="0" NumberOfStrips="0" NumberOfPolys="0">
<Points>
<DataArray type="Float32" Name="Position" NumberOfComponents="3" format="ascii">
  5.919186E+00   1.978370E+00   1.755399E+00   1.229914E+01   7.809194E-01   1.713200E+00   1.143992E+01   3.990502E-01   1.970100E+00   1.578142E+00   1.068388E+01   1.579267E+00   7.789577E+00   1.106418E+00   6.782402E-01   8.476290E+00   8.133543E+00   2.035253E+00   9.546425E+00   7.480040E-01   4.243479E+00   1.951676E-01   4.493360E+00   2.833134E+00   1.405123E+01   1.649151E+00   3.417619E+00   7.723122E+00   3.406470E+00   8.720781E-01   1.300408E+01   8.944346E-01   4.923254E+00   5.250803E+00   4.292716E+00   2.742303E+00   6.931391E+00   8.323403E+00   2.279477E+00   9.530298E+00   1.018118E+00   3.372924E+00   8.548108E+00   6.810385E+00   2.535852E+00   1.253063E+01   1.575632E+00   4.135981E+00   6.168267E+00   6.132705E-01   1.178213E+00   1.494777E+00   5.547494E-01   3.033932E+00   5.179427E+00   1.357820E+00   1.185773E+00   3.390097E+00   1.256359E+01   2.905264E+00   3.891328E+00   1.606409E+01   4.003622E+00   1.759937E+00   2.659073E-01   3.818758E+00   4.183550E+00   3.734058E+00   4.832806E+00   5.089638E+00   2.216884E-01   3.615831E+00   5.826988E+00   8.698074E-01   1.426604E+00   1.396422E+01   2.680005E-01   4.293126E+00   8.981288E+00   1.417735E+01   1.304591E+00   3.435770E+00   2.024911E+00   3.982327E+00   4.456712E+00   9.117903E+00   1.998551E+00   5.448742E+00   2.035591E-01   4.043726E+00   1.088665E+00   5.619501E-01   3.526821E+00   3.167538E+00   2.330312E-01   1.667133E+00   3.708360E+00   5.612390E-01   2.315645E+00   2.461833E+00   6.651346E-01   2.065270E-01   7.079097E+00   1.210308E+00   1.187609E+00   1.149837E+01   8.997800E+00   3.188814E+00   8.401218E+00   7.915802E+00   2.890734E+00   9.800096E+00   1.173823E+01   2.994690E+00   1.026786E+01   1.026577E+00   2.060302E+00   7.374204E+00   2.658655E+00   3.155034E+00   9.700974E+00   3.227705E+00   3.087102E+00   3.023198E+00   4.230298E-01   3.445266E-01   2.701822E+00   8.943707E-01   2.577121E+00   4.124992E+00   1.087514E+01   4.728385E+00   1.225429E+01   3.395866E+00   2.531520E+00   7.651444E+00   1.669745E+01   2.529400E+00   1.437277E+01   1.440358E+01   1.113838E+00   2.983299E+00   1.473016E+00   1.436280E+00   9.927599E+00   6.577746E-01   3.244572E+00   7.630203E+00   1.588487E+01   1.885139E+00   1.072141E+01   2.204638E+00   1.810032E+00   5.974839E+00   4.823467E+00   2.414278E+00   1.186953E+00   1.307410E+01   1.123880E+00   2.552398E-01   6.215669E-01   3.134269E+00   6.519572E+00   1.161689E+00   1.827573E+00   1.032327E+01   8.896123E+00   3.969119E+00   1.037967E+01   7.329354E+00   4.046291E+00   1.405495E+01   2.839908E-01   3.418295E+00   6.398487E+00   1.015295E+01   7.424943E-01   1.523536E+00   8.261149E-01   1.679120E+00   1.696154E+00   2.062807E-01   4.347143E+00   8.809656E+00   3.953813E-01   4.905499E+00   7.389106E+00   2.806243E+00   1.070663E+00   7.345164E+00   6.979870E+00   3.671280E+00   7.905479E+00   1.919005E+00   9.311236E-01   8.543537E+00   1.902923E+01   3.482693E+00   6.512637E+00   1.018350E+01   4.711921E+00   1.024432E+01   2.135428E+01   4.249465E+00   1.319440E+01   2.718232E-01   1.007473E+00   9.288165E+00   3.177013E-01   3.271987E+00   6.186177E+00   2.025396E-01   1.063334E+00   8.284398E+00   4.409674E-01   3.734982E+00   2.939009E+00   4.755814E+00   1.327420E+00   1.169607E+01   8.341687E-01   4.886152E+00   1.437438E+00   2.177498E+00   2.106961E+00   8.994787E+00   1.471178E+01   4.245127E+00   1.229286E+00   5.668768E-01   3.946700E+00   7.118040E+00   7.737819E+00   3.934607E+00   2.579938E-01   2.039836E-01   1.997711E-01   5.016685E+00   1.280807E+01   7.564580E-01   2.693686E+00   3.300737E-01   3.838548E+00   5.615973E+00   1.588901E+01   3.735823E+00   6.181397E+00   6.306311E-01   2.878053E+00   7.388333E+00   3.174919E+00   1.674598E+00   6.980649E+00   1.979141E-01   2.086848E+00   7.194914E+00   3.330370E+00   1.300083E+00   5.159408E+00   6.297745E-01   2.852351E+00   7.039959E+00   2.309566E+00   4.956879E+00   4.605062E+00   1.086271E+00   1.586936E+00   3.041504E+00   2.194344E-01   3.994246E+00   1.602620E+00   2.104868E-01   1.118664E+00   2.491753E+00   5.162733E+00   7.989877E-01   1.255252E+01   4.158806E+00   4.437103E+00   9.323004E+00   6.193297E-01   7.037150E-01   4.423018E+00   1.201170E+01   9.271682E-01   1.435694E+01   2.077428E-01   1.094848E+00   6.432595E+00   5.151300E-01   3.411421E+00   2.135281E+00   2.022124E+00   4.660139E-01   1.044104E+01   3.416595E-01   4.059926E+00   1.157053E+01   2.042289E-01   4.872857E+00   6.648434E+00   2.965355E+00   2.075181E+00   1.406700E+01   1.696934E+01   3.699311E+00   4.237894E+00   6.614133E+00   9.046914E-01   9.131387E+00   2.364767E-01   2.603455E+00   1.129114E+00   1.093410E+01   1.314636E+00   4.867071E+00   8.987806E-01   2.910872E+00   5.690549E+00   1.270164E+01   3.097883E+00   4.032757E+00   1.083659E+00   5.153982E-01   7.173910E+00   4.783360E+00   9.678266E-01   1.359917E+01   6.867784E-01   3.047964E+00   8.238438E-01   4.348229E+00   5.582082E-01   5.174917E+00   5.430065E-01   1.542111E+00   1.161963E+01   6.045876E+00   2.025014E+00   3.923836E+00   1.780637E+00   1.064809E+00   2.325519E+00   5.680100E-01   2.857976E+00   1.007421E+00   1.471933E+00   3.498575E+00   5.739226E+00   8.134248E+00   3.573585E+00   4.580628E+00   5.235389E-01   2.444147E-01   6.349916E+00   1.035160E+00   4.787478E+00   3.274863E+00   4.363475E-01   3.565074E+00   7.462041E-01   7.302435E-01   1.523309E+00   3.431898E+00   9.969950E+00   3.394160E+00   9.693048E+00   1.078397E+00   4.770923E+00   6.516115E+00   1.185543E+00   3.890892E+00   4.472408E+00   3.089759E+00   2.573919E+00   8.444738E-01   5.507853E-01   2.153345E+00   7.786948E+00   3.490362E+00   1.858850E+00   5.619435E+00   5.250342E-01   1.456664E+00   2.764587E+00   1.450264E+01   4.461207E-01   1.721725E+00   6.093639E-01   4.043734E+00   1.070389E+01   7.856128E-01   4.981120E+00   5.863967E+00   4.003967E-01   4.196906E+00   1.275931E+01   7.531907E-01   3.821820E+00   7.792190E+00   1.061156E+01   4.545872E+00   5.461020E+00   1.977554E-01   3.268696E+00   1.062799E+01   1.858899E+00   2.127742E+00   6.632009E+00   2.043855E+00   8.577901E-01   9.053065E+00   7.382122E+00   4.310576E-01   1.791402E+00   3.563823E-01   7.200685E-01   1.200267E+01   3.540548E-01   2.063898E+00   1.488769E+00   1.242902E+00   4.123453E+00   6.637064E+00   3.770665E-01   4.829669E+00   1.601555E+00   2.654479E+00   3.125912E+00   3.717120E+00   1.025549E+01   1.554554E+00   5.970708E+00   4.373696E+00   2.561333E+00   1.015342E+01   1.332608E+00   3.916355E+00   2.082907E+00   2.614863E+00   4.145225E+00   1.372251E+01   4.519191E-01   1.619763E+00   1.044421E+01   7.634423E-01   2.301790E+00   1.468164E+01   1.657587E+00   4.919996E+00   1.408536E+01   2.533247E-01   3.716480E-01   8.399673E+00   2.020299E+00   1.594648E+00   4.326409E+00   1.370742E+00   3.598978E-01   3.803835E+00   2.002532E-01   3.374683E-01   6.236546E+00   1.007511E+01   3.664118E+00   4.255272E+00   7.655508E-01   3.590174E-01   2.757665E+00   6.216576E-01   6.003248E-01   2.138133E+00   1.073537E+00   4.882775E+00   1.039193E+01   1.947185E-01   2.553116E+00   5.551010E+00   1.191242E+00   2.639759E+00   4.085076E+00   3.385207E+00   3.996995E+00   1.845050E+00   1.036172E+01   3.667470E+00   2.293044E+00   1.725104E+01   1.459876E+00   2.170915E+00   8.373087E+00   1.903021E+00   2.646675E+00   4.214117E+00   3.616865E+00   5.423581E+00   9.453183E+00   2.368731E-01   1.093474E+01   7.500672E+00   2.245113E+00   1.217127E+01   1.175223E+01   2.536210E+00   9.615994E-01   5.254230E-01   4.377666E+00   1.257849E+01   2.662757E-01   2.044724E+00   4.159824E+00   2.089602E-01   4.688848E+00   8.791133E+00   2.925104E-01   2.463596E-01   5.911139E+00   5.819275E-01   1.755530E+00   2.303305E+00   7.604548E-01   1.125577E+00   5.855437E+00   1.511403E+01   2.526049E+00   9.875153E+00   4.545887E-01   4.713049E+00   2.132032E+00   1.023485E+00   4.030039E+00   6.886710E+00   2.578621E-01   3.468258E+00   4.235131E+00   5.383771E-01   2.211127E+00   5.657548E+00   1.998915E-01   1.229238E+00   3.912086E+00   9.606241E-01   4.588485E+00   4.532443E-01   8.072448E-01   4.981820E+00   6.517581E+00   2.585103E+00   4.759004E+00   4.580054E+00   8.274448E-01   1.159945E+00   2.757198E+00   1.401675E+00   5.466767E-01   8.904055E+00   2.663412E+00   2.902770E+00   7.124493E+00   1.160285E+01   1.539348E+00   1.271002E+01   1.041558E+01   3.921197E+00   5.768953E+00   1.983899E-01   2.419443E+00   2.669919E-01   1.404718E+00   1.777948E+00   6.328842E+00   9.000198E-01   8.392294E-01   7.622944E+00   2.643345E+00   4.851406E+00   7.464873E-01   2.797960E-01   2.740229E-01   8.108594E+00   2.765580E+00   3.639674E+00   3.062596E+00   6.144500E-01   3.239566E+00   6.201749E+00   5.865011E-01   4.764931E+00   7.402356E+00   4.530295E+00   4.491653E+00   3.645523E+00   1.359960E+00   3.065631E+00   4.671126E+00   5.812829E-01   2.769737E+00   1.882281E+00   9.068888E+00   3.933542E+00   1.435185E+01   4.177373E+00   1.071273E+00   1.460161E+01   6.639756E-01   4.172087E+00   7.380466E+00   2.591160E+00   3.635448E+00   4.237019E+00   4.878626E+00   2.614517E+00   8.896766E+00   1.222360E+01   3.069252E+00   4.267202E+00   8.025900E+00   2.724583E-01   8.113768E+00   7.322893E-01   5.424224E-01   6.037878E+00   2.019272E-01   4.507869E+00   1.567667E+00   6.870963E+00   3.225739E+00   1.271604E+01   5.778523E-01   2.910429E+00   1.078662E+01   1.728268E+00   8.968853E-01   6.036461E+00   1.253405E+00   1.529965E+00   3.357074E+00   2.267575E-01   8.386695E-01   5.237656E+00   2.026428E-01   1.146031E+00   1.221461E+01   9.338965E-01  
[...]
<PointData Scalars="Diameter" Vectors="Velocity">
<DataArray type="Float32" Name="Diameter" format="ascii">
  4.000000E-01   4.000000E-01   4.000000E-01   4.000000E-01   4.000000E-01   4.000000E-01   4.000000E-01   4.000000E-01   4.000000E-01   4.000000E-01   4.000000E-01   4.000000E-01   4.000000E-01   4.000000E-01   4.000000E-01   4.000000E-01   4.000000E-01   4.000000E-01   4.000000E-01   4.000000E-01   4.000000E-01   4.000000E-01   4.000000E-01   4.000000E-01   4.000000E-01   4.000000E-01   4.000000E-01   4.000000E-01   4.000000E-01   4.000000E-01   4.000000E-01   4.000000E-01   4.000000E-01   4.000000E-01   4.000000E-01   4.000000E-01   4.000000E-01   4.000000E-01   4.000000E-01   4.000000E-01   4.000000E-01   4.000000E-01   4.000000E-01   4.000000E-01   4.000000E-01   4.000000E-01   4.000000E-01   4.000000E-01   4.000000E-01   4.000000E-01   4.000000E-01   4.000000E-01   4.000000E-01   4.000000E-01   4.000000E-01   4.000000E-01   4.000000E-01   4.000000E-01   4.000000E-01   4.000000E-01   4.000000E-01   4.000000E-01   4.000000E-01   4.000000E-01   4.000000E-01   4.000000E-01   4.000000E-01   4.000000E-01   4.000000E-01   4.000000E-01   4.000000E-01   4.000000E-01   4.000000E-01   4.000000E-01   4.000000E-01   4.000000E-01   4.000000E-01   4.000000E-01   4.000000E-01   4.000000E-01   4.000000E-01   4.000000E-01   4.000000E-01   4.000000E-01   4.000000E-01   4.000000E-01   4.000000E-01   4.000000E-01   4.000000E-01   4.000000E-01   4.000000E-01   4.000000E-01   4.000000E-01   4.000000E-01   4.000000E-01   4.000000E-01   4.000000E-01   4.000000E-01   4.000000E-01   4.000000E-01   4.000000E-01   4.000000E-01   4.000000E-01   4.000000E-01   4.000000E-01   4.000000E-01   4.000000E-01   4.000000E-01   4.000000E-01   4.000000E-01   4.000000E-01   4.000000E-01   4.000000E-01   4.000000E-01   4.000000E-01   4.000000E-01   4.000000E-01   4.000000E-01   4.000000E-01   4.000000E-01   4.000000E-01   4.000000E-01   4.000000E-01   4.000000E-01   4.000000E-01   4.000000E-01   4.000000E-01   4.000000E-01   4.000000E-01   4.000000E-01   4.000000E-01   4.000000E-01   4.000000E-01   4.000000E-01   4.000000E-01   4.000000E-01   4.000000E-01   4.000000E-01   4.000000E-01   4.000000E-01   4.000000E-01   4.000000E-01   4.000000E-01   4.000000E-01   4.000000E-01   4.000000E-01   4.000000E-01   4.000000E-01   4.000000E-01   4.000000E-01   4.000000E-01   4.000000E-01   4.000000E-01   4.000000E-01   4.000000E-01   4.000000E-01   4.000000E-01   4.000000E-01   4.000000E-01   4.000000E-01   4.000000E-01   4.000000E-01   4.000000E-01   4.000000E-01   4.000000E-01   4.000000E-01   4.000000E-01   4.000000E-01   4.000000E-01   4.000000E-01   4.000000E-01   4.000000E-01   4.000000E-01   4.000000E-01   4.000000E-01   4.000000E-01   4.000000E-01   4.000000E-01   4.000000E-01   4.000000E-01   4.000000E-01   4.000000E-01   4.000000E-01   4.000000E-01   4.000000E-01   4.000000E-01   4.000000E-01   4.000000E-01   4.000000E-01   4.000000E-01   4.000000E-01   4.000000E-01   4.000000E-01   4.000000E-01   4.000000E-01   4.000000E-01   4.000000E-01   4.000000E-01   4.000000E-01   4.000000E-01   4.000000E-01   4.000000E-01   4.000000E-01   4.000000E-01   4.000000E-01   4.000000E-01   4.000000E-01   4.000000E-01   4.000000E-01   4.000000E-01   4.000000E-01   4.000000E-01   4.000000E-01   4.000000E-01   4.000000E-01   4.000000E-01   4.000000E-01   4.000000E-01   4.000000E-01   4.000000E-01   4.000000E-01   4.000000E-01   4.000000E-01   4.000000E-01   4.000000E-01   4.000000E-01   4.000000E-01   4.000000E-01   4.000000E-01   4.000000E-01   4.000000E-01   4.000000E-01   4.000000E-01   4.000000E-01   4.000000E-01   4.000000E-01   4.000000E-01   4.000000E-01   4.000000E-01   4.000000E-01   4.000000E-01   4.000000E-01   4.000000E-01   4.000000E-01   4.000000E-01   4.000000E-01   4.000000E-01   4.000000E-01   4.000000E-01   4.000000E-01   4.000000E-01   4.000000E-01   4.000000E-01   4.000000E-01   4.000000E-01   4.000000E-01   4.000000E-01   4.000000E-01   4.000000E-01   4.000000E-01   4.000000E-01   4.000000E-01   4.000000E-01   4.000000E-01   4.000000E-01   4.000000E-01   4.000000E-01   4.000000E-01   4.000000E-01   4.000000E-01   4.000000E-01   4.000000E-01   4.000000E-01   4.000000E-01   4.000000E-01   4.000000E-01   4.000000E-01   4.000000E-01   4.000000E-01   4.000000E-01   4.000000E-01   4.000000E-01   4.000000E-01   4.000000E-01   4.000000E-01   4.000000E-01   4.000000E-01   4.000000E-01   4.000000E-01   4.000000E-01   4.000000E-01   4.000000E-01   4.000000E-01   4.000000E-01   4.000000E-01   4.000000E-01   4.000000E-01   4.000000E-01   4.000000E-01   4.000000E-01   4.000000E-01   4.000000E-01   4.000000E-01   4.000000E-01   4.000000E-01   4.000000E-01   4.000000E-01   4.000000E-01   4.000000E-01   4.000000E-01   4.000000E-01   4.000000E-01   4.000000E-01   4.000000E-01   4.000000E-01   4.000000E-01   4.000000E-01   4.000000E-01   4.000000E-01   4.000000E-01   4.000000E-01   4.000000E-01   4.000000E-01   4.000000E-01   4.000000E-01   4.000000E-01   4.000000E-01   4.000000E-01   4.000000E-01   4.000000E-01   4.000000E-01   4.000000E-01   4.000000E-01   4.000000E-01   4.000000E-01   4.000000E-01   4.000000E-01   4.000000E-01   4.000000E-01   4.000000E-01   4.000000E-01   4.000000E-01   4.000000E-01   4.000000E-01   4.000000E-01   4.000000E-01   4.000000E-01   4.000000E-01   4.000000E-01   4.000000E-01   4.000000E-01   4.000000E-01   4.000000E-01   4.000000E-01   4.000000E-01   4.000000E-01   4.000000E-01   4.000000E-01   4.000000E-01   4.000000E-01   4.000000E-01   4.000000E-01   4.000000E-01   4.000000E-01   4.000000E-01   4.000000E-01   4.000000E-01   4.000000E-01   4.000000E-01   4.000000E-01   4.000000E-01   4.000000E-01   4.000000E-01   4.000000E-01   4.000000E-01   4.000000E-01   4.000000E-01   4.000000E-01   4.000000E-01   4.000000E-01   4.000000E-01   4.000000E-01   4.000000E-01   4.000000E-01   4.000000E-01   4.000000E-01   4.000000E-01   4.000000E-01   4.000000E-01   4.000000E-01   4.000000E-01   4.000000E-01   4.000000E-01   4.000000E-01   4.000000E-01   4.000000E-01   4.000000E-01   4.000000E-01   4.000000E-01   4.000000E-01   4.000000E-01   4.000000E-01   4.000000E-01   4.000000E-01   4.000000E-01   4.000000E-01   4.000000E-01   4.000000E-01   4.000000E-01   4.000000E-01   4.000000E-01   4.000000E-01   4.000000E-01   4.000000E-01   4.000000E-01   4.000000E-01   4.000000E-01   4.000000E-01   4.000000E-01   4.000000E-01   4.000000E-01   4.000000E-01   4.000000E-01   4.000000E-01   4.000000E-01   4.000000E-01   4.000000E-01   4.000000E-01   4.000000E-01   4.000000E-01   4.000000E-01   4.000000E-01   4.000000E-01   4.000000E-01   4.000000E-01   4.000000E-01   4.000000E-01   4.000000E-01   4.000000E-01   4.000000E-01   4.000000E-01   4.000000E-01   4.000000E-01   4.000000E-01   4.000000E-01   4.000000E-01   4.000000E-01   4.000000E-01   4.000000E-01   4.000000E-01   4.000000E-01   4.000000E-01   4.000000E-01   4.000000E-01   4.000000E-01   4.000000E-01   4.000000E-01   4.000000E-01   4.000000E-01   4.000000E-01   4.000000E-01   4.000000E-01   4.000000E-01   4.000000E-01   4.000000E-01   4.000000E-01   4.000000E-01   4.000000E-01   4.000000E-01   4.000000E-01   4.000000E-01   4.000000E-01   4.000000E-01   4.000000E-01   4.000000E-01   4.000000E-01   4.000000E-01   4.000000E-01   4.000000E-01   4.000000E-01   4.000000E-01   4.000000E-01   4.000000E-01   4.000000E-01   4.000000E-01   4.000000E-01   4.000000E-01   4.000000E-01   4.000000E-01   4.000000E-01   4.000000E-01   4.000000E-01   4.000000E-01   4.000000E-01   4.000000E-01   4.000000E-01   4.000000E-01   4.000000E-01   4.000000E-01   4.000000E-01   4.000000E-01   4.000000E-01   4.000000E-01   4.000000E-01   4.000000E-01   4.000000E-01   4.000000E-01   4.000000E-01   4.000000E-01   4.000000E-01   4.000000E-01   4.000000E-01   4.000000E-01   4.000000E-01   4.000000E-01   4.000000E-01   4.000000E-01   4.000000E-01   4.000000E-01   4.000000E-01   4.000000E-01   4.000000E-01   4.000000E-01   4.000000E-01   4.000000E-01   4.000000E-01   4.000000E-01   4.000000E-01   4.000000E-01   4.000000E-01   4.000000E-01   4.000000E-01   4.000000E-01   4.000000E-01   4.000000E-01   4.000000E-01   4.000000E-01   4.000000E-01   4.000000E-01   4.000000E-01   4.000000E-01   4.000000E-01   4.000000E-01   4.000000E-01   4.000000E-01   4.000000E-01   4.000000E-01   4.000000E-01   4.000000E-01   4.000000E-01   4.000000E-01   4.000000E-01   4.000000E-01   4.000000E-01   4.000000E-01   4.000000E-01   4.000000E-01   4.000000E-01   4.000000E-01   4.000000E-01   4.000000E-01   4.000000E-01   4.000000E-01   4.000000E-01   4.000000E-01   4.000000E-01   4.000000E-01   4.000000E-01   4.000000E-01   4.000000E-01   4.000000E-01   4.000000E-01   4.000000E-01   4.000000E-01   4.000000E-01   4.000000E-01   4.000000E-01   4.000000E-01   4.000000E-01   4.000000E-01   4.000000E-01   4.000000E-01   4.000000E-01   4.000000E-01   4.000000E-01   4.000000E-01   4.000000E-01   4.000000E-01   4.000000E-01   4.000000E-01   4.000000E-01   4.000000E-01   4.000000E-01   4.000000E-01   4.000000E-01   4.000000E-01   4.000000E-01   4.000000E-01   4.000000E-01   4.000000E-01   4.000000E-01   4.000000E-01   4.000000E-01   4.000000E-01   4.000000E-01   4.000000E-01   4.000000E-01   4.000000E-01   4.000000E-01   4.000000E-01   4.000000E-01   4.000000E-01   4.000000E-01   4.000000E-01   4.000000E-01   4.000000E-01   4.000000E-01   4.000000E-01   4.000000E-01   4.000000E-01   4.000000E-01   4.000000E-01   4.000000E-01   4.000000E-01   4.000000E-01   4.000000E-01   4.000000E-01   4.000000E-01   4.000000E-01   4.000000E-01   4.000000E-01   4.000000E-01   4.000000E-01   4.000000E-01   4.000000E-01   4.000000E-01   4.000000E-01   4.000000E-01   4.000000E-01   4.000000E-01   4.000000E-01   4.000000E-01   4.000000E-01   4.000000E-01   4.000000E-01   4.000000E-01   4.000000E-01   4.000000E-01   4.000000E-01   4.000000E-01   4.000000E-01   4.000000E-01   4.000000E-01   4.000000E-01   4.000000E-01   4.000000E-01   4.000000E-01   4.000000E-01   4.000000E-01   4.000000E-01   4.000000E-01   4.000000E-01   4.000000E-01   4.000000E-01   4.000000E-01   4.000000E-01   4.000000E-01   4.000000E-01   4.000000E-01   4.000000E-01   4.000000E-01   4.000000E-01   4.000000E-01   4.000000E-01   4.000000E-01   4.000000E-01   4.000000E-01   4.000000E-01   4.000000E-01   4.000000E-01   4.000000E-01   4.000000E-01   4.000000E-01   4.000000E-01   4.000000E-01   4.000000E-01   4.000000E-01   4.000000E-01   4.000000E-01   4.000000E-01   4.000000E-01   4.000000E-01   4.000000E-01   4.000000E-01   4.000000E-01   4.000000E-01   4.000000E-01   4.000000E-01   4.000000E-01   4.000000E-01   4.000000E-01   4.000000E-01   4.000000E-01   4.000000E-01   4.000000E-01   4.000000E-01   4.000000E-01   4.000000E-01   4.000000E-01   4.000000E-01   4.000000E-01   4.000000E-01   4.000000E-01   4.000000E-01   4.000000E-01   4.000000E-01   4.000000E-01   4.000000E-01   4.000000E-01   4.000000E-01   4.000000E-01   4.000000E-01   4.000000E-01   4.000000E-01   4.000000E-01   4.000000E-01   4.000000E-01   4.000000E-01   4.000000E-01   4.000000E-01   4.000000E-01   4.000000E-01   4.000000E-01   4.000000E-01   4.000000E-01   4.000000E-01   4.000000E-01   4.000000E-01   4.000000E-01   4.000000E-01   4.000000E-01   4.000000E-01   4.000000E-01   4.000000E-01   4.000000E-01   4.000000E-01   4.000000E-01   4.000000E-01   4.000000E-01   4.000000E-01   4.000000E-01   4.000000E-01   4.000000E-01   4.000000E-01   4.000000E-01   4.000000E-01   4.000000E-01   4.000000E-01   4.000000E-01   4.000000E-01   4.000000E-01   4.000000E-01   4.000000E-01   4.000000E-01   4.000000E-01   4.000000E-01   4.000000E-01   4.000000E-01   4.000000E-01   4.000000E-01   4.000000E-01   4.000000E-01   4.000000E-01   4.000000E-01   4.000000E-01   4.000000E-01   4.000000E-01   4.000000E-01   4.000000E-01   4.000000E-01   4.000000E-01   4.000000E-01   4.000000E-01   4.000000E-01   4.000000E-01   4.000000E-01   4.000000E-01   4.000000E-01   4.000000E-01   4.000000E-01   4.000000E-01   4.000000E-01   4.000000E-01   4.000000E-01   4.000000E-01   4.000000E-01   4.000000E-01   4.000000E-01   4.000000E-01   4.000000E-01   4.000000E-01   4.000000E-01   4.000000E-01   4.000000E-01   4.000000E-01   4.000000E-01   4.000000E-01   4.000000E-01   4.000000E-01   4.000000E-01   4.000000E-01   4.000000E-01   4.000000E-01   4.000000E-01   4.000000E-01   4.000000E-01   4.000000E-01   4.000000E-01   4.000000E-01   4.000000E-01   4.000000E-01   4.000000E-01   4.000000E-01   4.000000E-01   4.000000E-01   4.000000E-01   4.000000E-01   4.000000E-01   4.000000E-01   4.000000E-01   4.000000E-01   4.000000E-01   4.000000E-01   4.000000E-01   4.000000E-01   4.000000E-01   4.000000E-01   4.000000E-01   4.000000E-01   4.000000E-01   4.000000E-01   4.000000E-01   4.000000E-01   4.000000E-01   4.000000E-01   4.000000E-01   4.000000E-01   4.000000E-01   4.000000E-01   4.000000E-01   4.000000E-01   4.000000E-01   4.000000E-01   4.000000E-01   4.000000E-01   4.000000E-01   4.000000E-01   4.000000E-01   4.000000E-01   4.000000E-01   4.000000E-01   4.000000E-01   4.000000E-01   4.000000E-01   4.000000E-01   4.000000E-01   4.000000E-01   4.000000E-01   4.000000E-01   4.000000E-01   4.000000E-01   4.000000E-01   4.000000E-01   4.000000E-01   4.000000E-01   4.000000E-01   4.000000E-01   4.000000E-01   4.000000E-01   4.000000E-01   4.000000E-01   4.000000E-01   4.000000E-01   4.000000E-01   4.000000E-01   4.000000E-01   4.000000E-01   4.000000E-01   4.000000E-01   4.000000E-01   4.000000E-01   4.000000E-01   4.000000E-01   4.000000E-01   4.000000E-01   4.000000E-01   4.000000E-01   4.000000E-01   4.000000E-01   4.000000E-01   4.000000E-01   4.000000E-01   4.000000E-01   4.000000E-01   4.000000E-01   4.000000E-01   4.000000E-01   4.000000E-01   4.000000E-01   4.000000E-01   4.000000E-01   4.000000E-01   4.000000E-01   4.000000E-01   4.000000E-01   4.000000E-01   4.000000E-01   4.000000E-01   4.000000E-01   4.000000E-01   4.000000E-01   4.000000E-01   4.000000E-01   4.000000E-01   4.000000E-01   4.000000E-01   4.000000E-01   4.000000E-01   4.000000E-01   4.000000E-01   4.000000E-01   4.000000E-01   4.000000E-01   4.000000E-01   4.000000E-01   4.000000E-01   4.000000E-01   4.000000E-01   4.000000E-01   4.000000E-01   4.000000E-01   4.000000E-01   4.000000E-01   4.000000E-01   4.000000E-01   4.000000E-01   4.000000E-01   4.000000E-01   4.000000E-01   4.000000E-01   4.000000E-01   4.000000E-01   4.000000E-01   4.000000E-01   4.000000E-01   4.000000E-01   4.000000E-01   4.000000E-01   4.000000E-01   4.000000E-01   4.000000E-01   4.000000E-01   4.000000E-01   4.000000E-01   4.000000E-01   4.000000E-01   4.000000E-01   4.000000E-01   4.000000E-01   4.000000E-01   4.000000E-01   4.000000E-01   4.000000E-01   4.000000E-01   4.000000E-01   4.000000E-01   4.000000E-01   4.000000E-01   4.000000E-01   4.000000E-01   4.000000E-01   4.000000E-01   4.000000E-01   4.000000E-01   4.000000E-01   4.000000E-01   4.000000E-01   4.000000E-01   4.000000E-01   4.000000E-01   4.000000E-01   4.000000E-01   4.000000E-01   4.000000E-01   4.000000E-01   4.000000E-01   4.000000E-01   4.000000E-01   4.000000E-01   4.000000E-01   4.000000E-01   4.000000E-01   4.000000E-01   4.000000E-01   4.000000E-01   4.000000E-01   4.000000E-01   4.000000E-01   4.000000E-01   4.000000E-01   4.000000E-01   4.000000E-01   4.000000E-01   4.000000E-01   4.000000E-01   4.000000E-01   4.000000E-01   4.000000E-01   4.000000E-01   4.000000E-01   4.000000E-01   4.000000E-01   4.000000E-01   4.000000E-01   4.000000E-01   4.000000E-01   4.000000E-01   4.000000E-01   4.000000E-01   4.000000E-01   4.000000E-01   4.000000E-01   4.000000E-01   4.000000E-01   4.000000E-01   4.000000E-01   4.000000E-01   4.000000E-01   4.000000E-01   4.000000E-01   4.000000E-01   4.000000E-01   4.000000E-01   4.000000E-01   4.000000E-01   4.000000E-01   4.000000E-01   4.000000E-01   4.000000E-01   4.000000E-01   4.000000E-01   4.000000E-01   4.000000E-01   4.000000E-01   4.000000E-01   4.000000E-01   4.000000E-01   4.000000E-01   4.000000E-01   4.000000E-01   4.000000E-01   4.000000E-01   4.000000E-01   4.000000E-01   4.000000E-01   4.000000E-01   4.000000E-01   4.000000E-01   4.000000E-01   4.000000E-01   4.000000E-01   4.000000E-01   4.000000E-01   4.000000E-01   4.000000E-01   4.000000E-01   4.000000E-01   4.000000E-01   4.000000E-01   4.000000E-01   4.000000E-01   4.000000E-01   4.000000E-01   4.000000E-01   4.000000E-01   4.000000E-01   4.000000E-01   4.000000E-01   4.000000E-01   4.000000E-01   4.000000E-01   4.000000E-01   4.000000E-01   4.000000E-01   4.000000E-01   4.000000E-01   4.000000E-01   4.000000E-01   4.000000E-01   4.000000E-01   4.000000E-01   4.000000E-01   4.000000E-01   4.000000E-01   4.000000E-01   4.000000E-01   4.000000E-01   4.000000E-01   4.000000E-01   4.000000E-01   4.000000E-01   4.000000E-01   4.000000E-01   4.000000E-01   4.000000E-01   4.000000E-01   4.000000E-01   4.000000E-01   4.000000E-01   4.000000E-01   4.000000E-01   4.000000E-01   4.000000E-01   4.000000E-01   4.000000E-01   4.000000E-01   4.000000E-01   4.000000E-01   4.000000E-01   4.000000E-01   4.000000E-01   4.000000E-01   4.000000E-01   4.000000E-01   4.000000E-01   4.000000E-01   4.000000E-01   4.000000E-01   4.000000E-01   4.000000E-01   4.000000E-01   4.000000E-01   4.000000E-01   4.000000E-01   4.000000E-01   4.000000E-01   4.000000E-01   4.000000E-01   4.000000E-01   4.000000E-01   4.000000E-01   4.000000E-01   4.000000E-01   4.000000E-01   4.000000E-01   4.000000E-01   4.000000E-01   4.000000E-01   4.000000E-01   4.000000E-01   4.000000E-01   4.000000E-01   4.000000E-01   4.000000E-01   4.000000E-01   4.000000E-01   4.000000E-01   4.000000E-01   4.000000E-01   4.000000E-01   4.000000E-01   4.000000E-01   4.000000E-01   4.000000E-01   4.000000E-01   4.000000E-01   4.000000E-01   4.000000E-01   4.000000E-01   4.000000E-01   4.000000E-01   4.000000E-01   4.000000E-01   4.000000E-01   4.000000E-01   4.000000E-01   4.000000E-01   4.000000E-01   4.000000E-01   4.000000E-01   4.000000E-01   4.000000E-01   4.000000E-01   4.000000E-01   4.000000E-01   4.000000E-01   4.000000E-01   4.000000E-01   4.000000E-01   4.000000E-01   4.000000E-01   4.000000E-01   4.000000E-01   4.000000E-01   4.000000E-01   4.000000E-01   4.000000E-01   4.000000E-01   4.000000E-01   4.000000E-01   4.000000E-01   4.000000E-01   4.000000E-01   4.000000E-01   4.000000E-01   4.000000E-01   4.000000E-01   4.000000E-01   4.000000E-01   4.000000E-01   4.000000E-01   4.000000E-01   4.000000E-01   4.000000E-01   4.000000E-01   4.000000E-01   4.000000E-01   4.000000E-01   4.000000E-01   4.000000E-01   4.000000E-01   4.000000E-01   4.000000E-01   4.000000E-01   4.000000E-01   4.000000E-01   4.000000E-01   4.000000E-01   4.000000E-01   4.000000E-01   4.000000E-01   4.000000E-01   4.000000E-01   4.000000E-01   4.000000E-01   4.000000E-01   4.000000E-01   4.000000E-01   4.000000E-01   4.000000E-01   4.000000E-01   4.000000E-01   4.000000E-01   4.000000E-01   4.000000E-01   4.000000E-01   4.000000E-01   4.000000E-01   4.000000E-01   4.000000E-01   4.000000E-01   4.000000E-01   4.000000E-01   4.000000E-01   4.000000E-01   4.000000E-01   4.000000E-01   4.000000E-01   4.000000E-01   4.000000E-01   4.000000E-01   4.000000E-01   4.000000E-01   4.000000E-01   4.000000E-01   4.000000E-01   4.000000E-01   4.000000E-01   4.000000E-01   4.000000E-01   4.000000E-01   4.000000E-01   4.000000E-01   4.000000E-01   4.000000E-01   4.000000E-01   4.000000E-01   4.000000E-01   4.000000E-01   4.000000E-01   4.000000E-01   4.000000E-01   4.000000E-01   4.000000E-01   4.000000E-01   4.000000E-01   4.000000E-01   4.000000E-01   4.000000E-01   4.000000E-01   4.000000E-01   4.000000E-01   4.000000E-01   4.000000E-01   4.000000E-01   4.000000E-01   4.000000E-01   4.000000E-01   4.000000E-01   4.000000E-01   4.000000E-01   4.000000E-01   4.000000E-01   4.000000E-01   4.000000E-01   4.000000E-01   4.000000E-01   4.000000E-01   4.000000E-01   4.000000E-01   4.000000E-01   4.000000E-01   4.000000E-01   4.000000E-01   4.000000E-01   4.000000E-01   