<?xml version="1.0"?>
<!-- Time =  3.3005776260279083E+00s -->
<VTKFile type="PolyData" version="0.1" byte_order="LittleEndian">
<PolyData>
<Piece NumberOfPoints="0000002400" NumberOfVerts="0" NumberOfLines="0" NumberOfStrips="0" NumberOfPolys="0">
<Points>
<DataArray type="Float32" Name="Position" NumberOfComponents="3" format="ascii">
  7.302328E+00   5.209857E+00   2.010868E+00   1.115174E+01   7.196206E-01   8.110023E-01   2.224560E+00   5.320371E-01   2.555517E+00   5.449156E+00   5.083110E-01   3.574096E+00   5.403830E+00   1.224908E+00   4.881756E+00   1.239480E+01   2.113376E-01   3.600449E+00   1.283628E+01   1.570146E+01   4.797849E+00   8.679191E+00   1.831402E+01   3.486045E+00   2.765582E+00   2.168580E-01   2.389414E+00   1.278634E+01   1.709231E+01   4.649556E+00   5.104381E+00   1.994153E-01   4.030200E+00   1.380089E+01   2.896901E+00   2.013000E+00   4.995825E+00   7.663546E+00   4.073305E+00   1.165204E+00   1.160656E+00   1.972726E+00   5.732873E+00   1.504476E+01   4.309036E-01   3.727263E+00   7.263207E+00   3.201639E+00   1.638670E+00   6.789773E+00   2.733232E+00   7.330760E+00   2.841043E+00   1.823609E+00   2.547219E+00   3.251662E-01   4.382895E+00   7.112057E+00   4.120490E+00   2.979170E+00   5.591523E+00   2.148403E-01   4.235961E+00   1.309500E+01   3.589288E-01   2.604948E+00   5.485486E+00   1.125478E+01   4.962837E+00   5.416535E+00   1.190567E+00   3.741180E+00   5.991216E+00   1.816204E+00   4.110937E+00   4.020266E+00   4.795632E+00   1.108217E+00   1.933113E+00   8.864557E-01   3.924030E+00   6.566236E+00   5.899320E-01   2.913499E+00   6.133498E+00   7.707323E-01   4.160432E+00   2.347713E+00   1.609570E+01   4.076202E+00   3.037314E-01   5.307401E+00   1.888269E+00   5.258624E+00   5.637015E-01   4.198186E+00   9.353413E+00   5.943934E-01   2.924989E+00   3.982766E+00   1.269662E+00   3.081394E+00   2.675188E+00   1.972885E-01   4.746985E+00   1.091363E+01   1.898545E+01   1.861343E+00   1.272759E+01   1.109544E+01   1.201978E+00   1.331605E+01   2.139463E-01   1.898137E+00   1.281395E+00   8.065105E-01   3.713253E+00   6.780509E+00   1.341495E+00   1.737463E+00   1.217798E+00   1.051911E+00   1.540697E+00   1.075867E+01   3.307888E-01   1.713964E+00   5.598503E+00   5.222473E-01   3.971567E+00   4.336933E+00   5.947753E+00   2.213930E+00   3.650466E+00   4.732896E-01   5.646895E-01   7.125622E+00   1.531055E+00   7.679973E-01   4.856560E+00   1.680612E+01   1.848839E+00   3.934418E+00   5.826125E-01   2.426800E+00   1.913419E+00   1.050727E+00   2.646024E+00   6.623512E+00   1.749878E+01   3.830594E+00   2.314582E+00   1.267336E+01   4.753386E+00   1.667268E+00   1.232073E+00   1.995370E+00   1.739011E+00   8.559393E-01   4.317934E+00   3.679579E+00   9.994142E+00   6.037619E-01   4.152495E+00   5.047804E-01   1.336994E+00   6.637983E+00   1.467489E+01   2.764720E+00   8.274755E+00   6.364145E-01   1.784467E+00   4.923867E+00   5.254214E-01   2.315678E+00   7.472017E+00   3.480170E+00   7.425842E-01   7.954741E+00   1.924895E+00   8.844479E-01   9.313074E+00   7.901288E+00   1.057337E+00   1.069631E+01   2.736683E-01   3.069574E+00   5.706618E+00   8.343560E-01   3.432829E+00   6.759591E+00   4.052155E+00   1.304955E+00   4.255171E+00   7.881901E-01   1.075498E+00   8.991261E+00   2.170579E-01   4.939378E+00   6.022164E+00   1.182780E+01   2.195545E+00   3.877451E+00   4.226685E-01   2.099190E-01   8.113434E+00   5.085609E+00   1.608391E+00   1.239612E+01   1.086056E+00   1.284928E+00   4.964455E+00   9.030167E-01   4.126055E+00   1.935882E+00   4.617604E-01   5.098428E-01   5.138003E-01   1.564881E+00   4.754879E+00   1.365008E+01   2.468038E-01   3.962801E+00   1.319276E+01   1.035360E+01   3.855643E+00   7.003413E+00   1.365004E+00   1.261933E+00   1.457144E+01   5.880566E-01   1.513008E+00   3.200417E+00   6.073344E-01   6.739101E-01   3.530906E+00   4.868019E+00   1.943736E+00   5.479379E-01   7.297007E-01   2.985446E-01   4.849611E+00   1.602693E+01   1.820452E+00   1.871310E+00   6.054379E-01   9.015633E-01   1.102263E+01   1.074335E+01   4.174505E+00   6.352818E+00   2.143593E-01   4.703961E+00   4.368324E+00   4.225783E+00   4.617710E-01   4.767508E+00   2.263087E-01   3.793950E+00   1.406028E+01   4.702087E-01   4.262638E+00   2.297626E+00   3.017230E-01   3.954837E+00   4.394941E+00   3.878144E-01   2.871223E+00   3.122765E+00   5.915293E-01   2.531958E+00   3.498662E+00   8.729980E-01   1.343086E+00   2.454350E-01   2.291592E-01   2.037350E-01   5.620502E+00   1.879177E+00   4.382969E+00   2.509483E+00   2.050744E+00   4.923436E+00   4.419066E+00   5.639456E+00   4.922575E+00   4.840711E+00   5.071657E-01   7.476602E-01   1.819574E+00   5.691735E-01   1.337317E+00   1.225545E+01   1.539189E+00   1.973393E+00   3.706008E+00   1.304979E+00   2.005486E+00   7.919570E+00   1.480438E+01   3.549609E+00   6.317801E+00   2.569532E+00   3.895731E+00   6.028800E+00   1.930305E+00   3.659986E+00   2.012661E-01   5.204616E-01   4.998973E+00   6.562483E+00   2.242056E-01   6.113482E-01   5.492956E+00   2.593248E+00   4.792995E+00   3.831558E+00   2.200667E-01   3.503480E+00   6.561023E+00   1.234370E+00   9.455661E-01   2.907579E+00   2.068801E-01   6.221125E-01   3.722825E+00   5.222896E-01   3.255326E+00   8.187838E+00   1.549945E+01   1.121683E+00   5.250998E+00   4.880538E-01   5.009962E-01   6.701152E+00   2.884488E-01   9.927353E-01   2.595112E+00   4.672624E-01   5.065365E-01   1.382470E+01   1.745839E+00   1.690510E+00   5.724317E+00   1.247450E+01   1.988911E+00   3.882786E+00   3.637716E+00   3.535753E-01   4.017178E+00   1.175840E+00   1.719087E+00   2.915485E+00   2.064450E-01   1.341092E+00   2.750178E+00   6.028830E-01   3.377277E+00   1.893543E+00   2.107260E-01   8.172285E-01   9.618526E+00   1.145616E+00   1.534687E+00   9.589157E+00   4.565386E-01   3.963152E-01   1.058281E+01   8.148952E-01   1.222594E+00   5.862104E+00   2.302774E+00   4.869720E+00   1.904611E+00   1.261617E+00   4.445261E+00   6.683322E+00   2.073274E-01   3.025922E+00   4.517098E+00   6.668304E-01   3.869524E+00   1.962456E+00   2.046404E-01   2.798660E+00   1.089062E+01   3.637859E-01   2.243371E+00   6.284181E+00   1.703224E+01   1.531408E+00   4.542965E+00   4.734989E-01   3.522033E+00   7.708400E-01   2.239080E-01   4.258713E+00   8.104924E+00   1.274247E+01   3.272728E+00   6.389162E+00   9.504468E-01   1.335620E+00   6.229362E+00   1.196968E+00   4.455325E+00   1.742145E+00   5.707728E-01   2.111619E+00   1.170107E+01   2.659066E-01   3.558064E-01   4.678052E+00   5.482098E-01   1.126449E+00   1.162089E+01   1.341043E+00   1.301576E+00   5.509967E+00   2.215566E-01   9.316139E-01   5.395617E+00   1.933923E+00   3.756911E+00   7.836727E+00   4.545987E-01   3.343424E+00   1.165100E+01   8.017540E+00   1.693293E+00   2.786049E+00   1.974990E-01   1.986524E+00   9.568605E+00   1.886348E-01   3.435327E+00   4.607467E+00   8.820059E-01   3.481528E+00   1.419038E+01   2.795908E+00   4.519938E+00   7.488206E+00   1.385276E+00   3.747447E+00   1.476616E+01   2.270728E-01   4.537477E+00   1.487404E+00   1.504003E+00   3.899482E+00   1.443186E+00   4.564418E-01   4.294914E+00   7.365518E+00   4.154302E-01   4.873586E+00   9.789079E+00   1.938688E+01   2.951394E+00   1.161198E+01   5.469798E+00   4.164321E+00   3.389824E+00   1.548090E+01   6.551395E-01   1.025814E+01   1.170918E+01   1.353325E+00   1.134069E+00   1.088078E+01   1.238288E+00   4.016887E+00   1.451311E+01   1.123267E+00   6.332411E+00   2.027551E-01   1.377876E+00   5.281621E+00   6.167455E+00   4.542268E+00   6.607180E+00   5.999028E-01   1.982616E+00   2.897331E+00   7.533886E+00   4.464757E+00   4.845968E+00   5.267799E-01   4.050084E+00   6.311391E+00   1.146399E+00   2.558789E+00   5.607199E+00   1.838122E+01   1.379417E+00   1.376469E+01   6.282749E-01   1.864559E+00   4.444070E+00   7.609167E-01   3.069516E+00   7.360952E+00   5.909159E-01   3.347161E-01   1.051233E+01   6.934719E+00   3.744124E+00   5.187711E+00   2.420680E-01   4.423967E+00   1.009685E+00   5.294682E-01   2.029553E-01   5.245838E+00   2.016454E-01   2.013967E-01   4.609765E+00   1.474428E+01   1.275372E+00   6.941794E-01   2.533627E-01   2.191341E-01   9.965008E+00   2.057657E+00   1.666990E+00   9.946980E+00   1.497801E+01   3.527660E+00   7.240349E+00   4.266762E-01   3.153919E+00   1.138748E+01   4.917098E-01   5.366634E-01   1.573464E+00   2.083870E+00   4.688685E+00   5.607624E+00   8.831298E-01   4.738722E+00   2.171567E+00   2.036614E-01   1.616830E+00   6.329886E+00   4.582583E-01   4.363543E+00   2.294502E+00   2.046172E-01   8.992289E-01   4.820613E+00   1.309833E+00   2.083669E+00   2.220856E+00   2.118976E-01   3.117365E+00   5.675946E+00   7.530614E+00   3.655502E+00   7.738634E+00   1.576368E+01   2.979270E+00   4.268690E-01   2.614215E+00   4.674989E+00   7.277249E+00   1.366429E+01   2.663518E+00   1.406956E+01   1.324341E+01   4.717145E+00   3.781303E+00   1.271581E+01   8.891799E-01   2.691082E+00   4.699681E+00   1.247639E+00   3.495872E+00   2.075350E-01   2.186283E-01   4.622529E+00   1.156357E+00   2.973734E+00   5.449806E+00   7.648925E-01   1.934177E+00   3.455629E+00   1.197050E+01   1.699386E+00   2.674438E-01   2.904288E-01   4.632916E+00   6.668692E+00   8.607069E+00   4.673061E+00   7.616395E+00   7.242506E+00   1.804775E+00   1.580659E+00   9.267688E+00   8.086727E-01   9.508727E-01   1.488961E+01   1.498562E+00   7.493908E+00   3.044726E+00   1.036359E+00   2.320601E+00   6.172218E-01   9.800444E-01   6.348988E+00   6.208996E+00   2.777464E+00   6.306754E+00   1.948742E+01   2.591280E+00   1.444892E+00   2.033718E-01   2.268595E+00   9.360330E-01   7.873106E+00   3.015672E+00   8.138764E+00   1.546332E+00   1.183687E+00   6.014776E+00   1.450909E+01   4.602880E+00   7.343833E+00   1.153519E+01   3.879905E+00   8.182157E+00   1.568664E+00   7.556720E-01   3.353071E+00   8.751644E-01   4.834630E+00   4.954346E+00   1.967024E+01   4.324986E+00   5.880470E+00   8.224992E-01   2.080466E+00   1.271014E+01   1.995144E-01  
[...]
<PointData Scalars="Diameter" Vectors="Velocity">
<DataArray type="Float32" Name="Diameter" format="ascii">
  4.000000E-01   4.000000E-01   4.000000E-01   4.000000E-01   4.000000E-01   4.000000E-01   4.000000E-01   4.000000E-01   4.000000E-01   4.000000E-01   4.000000E-01   4.000000E-01   4.000000E-01   4.000000E-01   4.000000E-01   4.000000E-01   4.000000E-01   4.000000E-01   4.000000E-01   4.000000E-01   4.000000E-01   4.000000E-01   4.000000E-01   4.000000E-01   4.000000E-01   4.000000E-01   4.000000E-01   4.000000E-01   4.000000E-01   4.000000E-01   4.000000E-01   4.000000E-01   4.000000E-01   4.000000E-01   4.000000E-01   4.000000E-01   4.000000E-01   4.000000E-01   4.000000E-01   4.000000E-01   4.000000E-01   4.000000E-01   4.000000E-01   4.000000E-01   4.000000E-01   4.000000E-01   4.000000E-01   4.000000E-01   4.000000E-01   4.000000E-01   4.000000E-01   4.000000E-01   4.000000E-01   4.000000E-01   4.000000E-01   4.000000E-01   4.000000E-01   4.000000E-01   4.000000E-01   4.000000E-01   4.000000E-01   4.000000E-01   4.000000E-01   4.000000E-01   4.000000E-01   4.000000E-01   4.000000E-01   4.000000E-01   4.000000E-01   4.000000E-01   4.000000E-01   4.000000E-01   4.000000E-01   4.000000E-01   4.000000E-01   4.000000E-01   4.000000E-01   4.000000E-01   4.000000E-01   4.000000E-01   4.000000E-01   4.000000E-01   4.000000E-01   4.000000E-01   4.000000E-01   4.000000E-01   4.000000E-01   4.000000E-01   4.000000E-01   4.000000E-01   4.000000E-01   4.000000E-01   4.000000E-01   4.000000E-01   4.000000E-01   4.000000E-01   4.000000E-01   4.000000E-01   4.000000E-01   4.000000E-01   4.000000E-01   4.000000E-01   4.000000E-01   4.000000E-01   4.000000E-01   4.000000E-01   4.000000E-01   4.000000E-01   4.000000E-01   4.000000E-01   4.000000E-01   4.000000E-01   4.000000E-01   4.000000E-01   4.000000E-01   4.000000E-01   4.000000E-01   4.000000E-01   4.000000E-01   4.000000E-01   4.000000E-01   4.000000E-01   4.000000E-01   4.000000E-01   4.000000E-01   4.000000E-01   4.000000E-01   4.000000E-01   4.000000E-01   4.000000E-01   4.000000E-01   4.000000E-01   4.000000E-01   4.000000E-01   4.000000E-01   4.000000E-01   4.000000E-01   4.000000E-01   4.000000E-01   4.000000E-01   4.000000E-01   4.000000E-01   4.000000E-01   4.000000E-01   4.000000E-01   4.000000E-01   4.000000E-01   4.000000E-01   4.000000E-01   4.000000E-01   4.000000E-01   4.000000E-01   4.000000E-01   4.000000E-01   4.000000E-01   4.000000E-01   4.000000E-01   4.000000E-01   4.000000E-01   4.000000E-01   4.000000E-01   4.000000E-01   4.000000E-01   4.000000E-01   4.000000E-01   4.000000E-01   4.000000E-01   4.000000E-01   4.000000E-01   4.000000E-01   4.000000E-01   4.000000E-01   4.000000E-01   4.000000E-01   4.000000E-01   4.000000E-01   4.000000E-01   4.000000E-01   4.000000E-01   4.000000E-01   4.000000E-01   4.000000E-01   4.000000E-01   4.000000E-01   4.000000E-01   4.000000E-01   4.000000E-01   4.000000E-01   4.000000E-01   4.000000E-01   4.000000E-01   4.000000E-01   4.000000E-01   4.000000E-01   4.000000E-01   4.000000E-01   4.000000E-01   4.000000E-01   4.000000E-01   4.000000E-01   4.000000E-01   4.000000E-01   4.000000E-01   4.000000E-01   4.000000E-01   4.000000E-01   4.000000E-01   4.000000E-01   4.000000E-01   4.000000E-01   4.000000E-01   4.000000E-01   4.000000E-01   4.000000E-01   4.000000E-01   4.000000E-01   4.000000E-01   4.000000E-01   4.000000E-01   4.000000E-01   4.000000E-01   4.000000E-01   4.000000E-01   4.000000E-01   4.000000E-01   4.000000E-01   4.000000E-01   4.000000E-01   4.000000E-01   4.000000E-01   4.000000E-01   4.000000E-01   4.000000E-01   4.000000E-01   4.000000E-01   4.000000E-01   4.000000E-01   4.000000E-01   4.000000E-01   4.000000E-01   4.000000E-01   4.000000E-01   4.000000E-01   4.000000E-01   4.000000E-01   4.000000E-01   4.000000E-01   4.000000E-01   4.000000E-01   4.000000E-01   4.000000E-01   4.000000E-01   4.000000E-01   4.000000E-01   4.000000E-01   4.000000E-01   4.000000E-01   4.000000E-01   4.000000E-01   4.000000E-01   4.000000E-01   4.000000E-01   4.000000E-01   4.000000E-01   4.000000E-01   4.000000E-01   4.000000E-01   4.000000E-01   4.000000E-01   4.000000E-01   4.000000E-01   4.000000E-01   4.000000E-01   4.000000E-01   4.000000E-01   4.000000E-01   4.000000E-01   4.000000E-01   4.000000E-01   4.000000E-01   4.000000E-01   4.000000E-01   4.000000E-01   4.000000E-01   4.000000E-01   4.000000E-01   4.000000E-01   4.000000E-01   4.000000E-01   4.000000E-01   4.000000E-01   4.000000E-01   4.000000E-01   4.000000E-01   4.000000E-01   4.000000E-01   4.000000E-01   4.000000E-01   4.000000E-01   4.000000E-01   4.000000E-01   4.000000E-01   4.000000E-01   4.000000E-01   4.000000E-01   4.000000E-01   4.000000E-01   4.000000E-01   4.000000E-01   4.000000E-01   4.000000E-01   4.000000E-01   4.000000E-01   4.000000E-01   4.000000E-01   4.000000E-01   4.000000E-01   4.000000E-01   4.000000E-01   4.000000E-01   4.000000E-01   4.000000E-01   4.000000E-01   4.000000E-01   4.000000E-01   4.000000E-01   4.000000E-01   4.000000E-01   4.000000E-01   4.000000E-01   4.000000E-01   4.000000E-01   4.000000E-01   4.000000E-01   4.000000E-01   4.000000E-01   4.000000E-01   4.000000E-01   4.000000E-01   4.000000E-01   4.000000E-01   4.000000E-01   4.000000E-01   4.000000E-01   4.000000E-01   4.000000E-01   4.000000E-01   4.000000E-01   4.000000E-01   4.000000E-01   4.000000E-01   4.000000E-01   4.000000E-01   4.000000E-01   4.000000E-01   4.000000E-01   4.000000E-01   4.000000E-01   4.000000E-01   4.000000E-01   4.000000E-01   4.000000E-01   4.000000E-01   4.000000E-01   4.000000E-01   4.000000E-01   4.000000E-01   4.000000E-01   4.000000E-01   4.000000E-01   4.000000E-01   4.000000E-01   4.000000E-01   4.000000E-01   4.000000E-01   4.000000E-01   4.000000E-01   4.000000E-01   4.000000E-01   4.000000E-01   4.000000E-01   4.000000E-01   4.000000E-01   4.000000E-01   4.000000E-01   4.000000E-01   4.000000E-01   4.000000E-01   4.000000E-01   4.000000E-01   4.000000E-01   4.000000E-01   4.000000E-01   4.000000E-01   4.000000E-01   4.000000E-01   4.000000E-01   4.000000E-01   4.000000E-01   4.000000E-01   4.000000E-01   4.000000E-01   4.000000E-01   4.000000E-01   4.000000E-01   4.000000E-01   4.000000E-01   4.000000E-01   4.000000E-01   4.000000E-01   4.000000E-01   4.000000E-01   4.000000E-01   4.000000E-01   4.000000E-01   4.000000E-01   4.000000E-01   4.000000E-01   4.000000E-01   4.000000E-01   4.000000E-01   4.000000E-01   4.000000E-01   4.000000E-01   4.000000E-01   4.000000E-01   4.000000E-01   4.000000E-01   4.000000E-01   4.000000E-01   4.000000E-01   4.000000E-01   4.000000E-01   4.000000E-01   4.000000E-01   4.000000E-01   4.000000E-01   4.000000E-01   4.000000E-01   4.000000E-01   4.000000E-01   4.000000E-01   4.000000E-01   4.000000E-01   4.000000E-01   4.000000E-01   4.000000E-01   4.000000E-01   4.000000E-01   4.000000E-01   4.000000E-01   4.000000E-01   4.000000E-01   4.000000E-01   4.000000E-01   4.000000E-01   4.000000E-01   4.000000E-01   4.000000E-01   4.000000E-01   4.000000E-01   4.000000E-01   4.000000E-01   4.000000E-01   4.000000E-01   4.000000E-01   4.000000E-01   4.000000E-01   4.000000E-01   4.000000E-01   4.000000E-01   4.000000E-01   4.000000E-01   4.000000E-01   4.000000E-01   4.000000E-01   4.000000E-01   4.000000E-01   4.000000E-01   4.000000E-01   4.000000E-01   4.000000E-01   4.000000E-01   4.000000E-01   4.000000E-01   4.000000E-01   4.000000E-01   4.000000E-01   4.000000E-01   4.000000E-01   4.000000E-01   4.000000E-01   4.000000E-01   4.000000E-01   4.000000E-01   4.000000E-01   4.000000E-01   4.000000E-01   4.000000E-01   4.000000E-01   4.000000E-01   4.000000E-01   4.000000E-01   4.000000E-01   4.000000E-01   4.000000E-01   4.000000E-01   4.000000E-01   4.000000E-01   4.000000E-01   4.000000E-01   4.000000E-01   4.000000E-01   4.000000E-01   4.000000E-01   4.000000E-01   4.000000E-01   4.000000E-01   4.000000E-01   4.000000E-01   4.000000E-01   4.000000E-01   4.000000E-01   4.000000E-01   4.000000E-01   4.000000E-01   4.000000E-01   4.000000E-01   4.000000E-01   4.000000E-01   4.000000E-01   4.000000E-01   4.000000E-01   4.000000E-01   4.000000E-01   4.000000E-01   4.000000E-01   4.000000E-01   4.000000E-01   4.000000E-01   4.000000E-01   4.000000E-01   4.000000E-01   4.000000E-01   4.000000E-01   4.000000E-01   4.000000E-01   4.000000E-01   4.000000E-01   4.000000E-01   4.000000E-01   4.000000E-01   4.000000E-01   4.000000E-01   4.000000E-01   4.000000E-01   4.000000E-01   4.000000E-01   4.000000E-01   4.000000E-01   4.000000E-01   4.000000E-01   4.000000E-01   4.000000E-01   4.000000E-01   4.000000E-01   4.000000E-01   4.000000E-01   4.000000E-01   4.000000E-01   4.000000E-01   4.000000E-01   4.000000E-01   4.000000E-01   4.000000E-01   4.000000E-01   4.000000E-01   4.000000E-01   4.000000E-01   4.000000E-01   4.000000E-01   4.000000E-01   4.000000E-01   4.000000E-01   4.000000E-01   4.000000E-01   4.000000E-01   4.000000E-01   4.000000E-01   4.000000E-01   4.000000E-01   4.000000E-01   4.000000E-01   4.000000E-01   4.000000E-01   4.000000E-01   4.000000E-01   4.000000E-01   4.000000E-01   4.000000E-01   4.000000E-01   4.000000E-01   4.000000E-01   4.000000E-01   4.000000E-01   4.000000E-01   4.000000E-01   4.000000E-01   4.000000E-01   4.000000E-01   4.000000E-01   4.000000E-01   4.000000E-01   4.000000E-01   4.000000E-01   4.000000E-01   4.000000E-01   4.000000E-01   4.000000E-01   4.000000E-01   4.000000E-01   4.000000E-01   4.000000E-01   4.000000E-01   4.000000E-01   4.000000E-01   4.000000E-01   4.000000E-01   4.000000E-01   4.000000E-01   4.000000E-01   4.000000E-01   4.000000E-01   4.000000E-01   4.000000E-01   4.000000E-01   4.000000E-01   4.000000E-01   4.000000E-01   4.000000E-01   4.000000E-01   4.000000E-01   4.000000E-01   4.000000E-01   4.000000E-01   4.000000E-01   4.000000E-01   4.000000E-01   4.000000E-01   4.000000E-01   4.000000E-01   4.000000E-01   4.000000E-01   4.000000E-01   4.000000E-01   4.000000E-01   4.000000E-01   4.000000E-01   4.000000E-01   4.000000E-01   4.000000E-01   4.000000E-01   4.000000E-01   4.000000E-01   4.000000E-01   4.000000E-01   4.000000E-01   4.000000E-01   4.000000E-01   4.000000E-01   4.000000E-01   4.000000E-01   4.000000E-01   4.000000E-01   4.000000E-01   4.000000E-01   4.000000E-01   4.000000E-01   4.000000E-01   4.000000E-01   4.000000E-01   4.000000E-01   4.000000E-01   4.000000E-01   4.000000E-01   4.000000E-01   4.000000E-01   4.000000E-01   4.000000E-01   4.000000E-01   4.000000E-01   4.000000E-01   4.000000E-01   4.000000E-01   4.000000E-01   4.000000E-01   4.000000E-01   4.000000E-01   4.000000E-01   4.000000E-01   4.000000E-01   4.000000E-01   4.000000E-01   4.000000E-01   4.000000E-01   4.000000E-01   4.000000E-01   4.000000E-01   4.000000E-01   4.000000E-01   4.000000E-01   4.000000E-01   4.000000E-01   4.000000E-01   4.000000E-01   4.000000E-01   4.000000E-01   4.000000E-01   4.000000E-01   4.000000E-01   4.000000E-01   4.000000E-01   4.000000E-01   4.000000E-01   4.000000E-01   4.000000E-01   4.000000E-01   4.000000E-01   4.000000E-01   4.000000E-01   4.000000E-01   4.000000E-01   4.000000E-01   4.000000E-01   4.000000E-01   4.000000E-01   4.000000E-01   4.000000E-01   4.000000E-01   4.000000E-01   4.000000E-01   4.000000E-01   4.000000E-01   4.000000E-01   4.000000E-01   4.000000E-01   4.000000E-01   4.000000E-01   4.000000E-01   4.000000E-01   4.000000E-01   4.000000E-01   4.000000E-01   4.000000E-01   4.000000E-01   4.000000E-01   4.000000E-01   4.000000E-01   4.000000E-01   4.000000E-01   4.000000E-01   4.000000E-01   4.000000E-01   4.000000E-01   4.000000E-01   4.000000E-01   4.000000E-01   4.000000E-01   4.000000E-01   4.000000E-01   4.000000E-01   4.000000E-01   4.000000E-01   4.000000E-01   4.000000E-01   4.000000E-01   4.000000E-01   4.000000E-01   4.000000E-01   4.000000E-01   4.000000E-01   4.000000E-01   4.000000E-01   4.000000E-01   4.000000E-01   4.000000E-01   4.000000E-01   4.000000E-01   4.000000E-01   4.000000E-01   4.000000E-01   4.000000E-01   4.000000E-01   4.000000E-01   4.000000E-01   4.000000E-01   4.000000E-01   4.000000E-01   4.000000E-01   4.000000E-01   4.000000E-01   4.000000E-01   4.000000E-01   4.000000E-01   4.000000E-01   4.000000E-01   4.000000E-01   4.000000E-01   4.000000E-01   4.000000E-01   4.000000E-01   4.000000E-01   4.000000E-01   4.000000E-01   4.000000E-01   4.000000E-01   4.000000E-01   4.000000E-01   4.000000E-01   4.000000E-01   4.000000E-01   4.000000E-01   4.000000E-01   4.000000E-01   4.000000E-01   4.000000E-01   4.000000E-01   4.000000E-01   4.000000E-01   4.000000E-01   4.000000E-01   4.000000E-01   4.000000E-01   4.000000E-01   4.000000E-01   4.000000E-01   4.000000E-01   4.000000E-01   4.000000E-01   4.000000E-01   4.000000E-01   4.000000E-01   4.000000E-01   4.000000E-01   4.000000E-01   4.000000E-01   4.000000E-01   4.000000E-01   4.000000E-01   4.000000E-01   4.000000E-01   4.000000E-01   4.000000E-01   4.000000E-01   4.000000E-01   4.000000E-01   4.000000E-01   4.000000E-01   4.000000E-01   4.000000E-01   4.000000E-01   4.000000E-01   4.000000E-01   4.000000E-01   4.000000E-01   4.000000E-01   4.000000E-01   4.000000E-01   4.000000E-01   4.000000E-01   4.000000E-01   4.000000E-01   4.000000E-01   4.000000E-01   4.000000E-01   4.000000E-01   4.000000E-01   4.000000E-01   4.000000E-01   4.000000E-01   4.000000E-01   4.000000E-01   4.000000E-01   4.000000E-01   4.000000E-01   4.000000E-01   4.000000E-01   4.000000E-01   4.000000E-01   4.000000E-01   4.000000E-01   4.000000E-01   4.000000E-01   4.000000E-01   4.000000E-01   4.000000E-01   4.000000E-01   4.000000E-01   4.000000E-01   4.000000E-01   4.000000E-01   4.000000E-01   4.000000E-01   4.000000E-01   4.000000E-01   4.000000E-01   4.000000E-01   4.000000E-01   4.000000E-01   4.000000E-01   4.000000E-01   4.000000E-01   4.000000E-01   4.000000E-01   4.000000E-01   4.000000E-01   4.000000E-01   4.000000E-01   4.000000E-01   4.000000E-01   4.000000E-01   4.000000E-01   4.000000E-01   4.000000E-01   4.000000E-01   4.000000E-01   4.000000E-01   4.000000E-01   4.000000E-01   4.000000E-01   4.000000E-01   4.000000E-01   4.000000E-01   4.000000E-01   4.000000E-01   4.000000E-01   4.000000E-01   4.000000E-01   4.000000E-01   4.000000E-01   4.000000E-01   4.000000E-01   4.000000E-01   4.000000E-01   4.000000E-01   4.000000E-01   4.000000E-01   4.000000E-01   4.000000E-01   4.000000E-01   4.000000E-01   4.000000E-01   4.000000E-01   4.000000E-01   4.000000E-01   4.000000E-01   4.000000E-01   4.000000E-01   4.000000E-01   4.000000E-01   4.000000E-01   4.000000E-01   4.000000E-01   4.000000E-01   4.000000E-01   4.000000E-01   4.000000E-01   4.000000E-01   4.000000E-01   4.000000E-01   4.000000E-01   4.000000E-01   4.000000E-01   4.000000E-01   4.000000E-01   4.000000E-01   4.000000E-01   4.000000E-01   4.000000E-01   4.000000E-01   4.000000E-01   4.000000E-01   4.000000E-01   4.000000E-01   4.000000E-01   4.000000E-01   4.000000E-01   4.000000E-01   4.000000E-01   4.000000E-01   4.000000E-01   4.000000E-01   4.000000E-01   4.000000E-01   4.000000E-01   4.000000E-01   4.000000E-01   4.000000E-01   4.000000E-01   4.000000E-01   4.000000E-01   4.000000E-01   4.000000E-01   4.000000E-01   4.000000E-01   4.000000E-01   4.000000E-01   4.000000E-01   4.000000E-01   4.000000E-01   4.000000E-01   4.000000E-01   4.000000E-01   4.000000E-01   4.000000E-01   4.000000E-01   4.000000E-01   4.000000E-01   4.000000E-01   4.000000E-01   4.000000E-01   4.000000E-01   4.000000E-01   4.000000E-01   4.000000E-01   4.000000E-01   4.000000E-01   4.000000E-01   4.000000E-01   4.000000E-01   4.000000E-01   4.000000E-01   4.000000E-01   4.000000E-01   4.000000E-01   4.000000E-01   4.000000E-01   4.000000E-01   4.000000E-01   4.000000E-01   4.000000E-01   4.000000E-01   4.000000E-01   4.000000E-01   4.000000E-01   4.000000E-01   4.000000E-01   4.000000E-01   4.000000E-01   4.000000E-01   4.000000E-01   4.000000E-01   4.000000E-01   4.000000E-01   4.000000E-01   4.000000E-01   4.000000E-01   4.000000E-01   4.000000E-01   4.000000E-01   4.000000E-01   4.000000E-01   4.000000E-01   4.000000E-01   4.000000E-01   4.000000E-01   4.000000E-01   4.000000E-01   4.000000E-01   4.000000E-01   4.000000E-01   4.000000E-01   4.000000E-01   4.000000E-01   4.000000E-01   4.000000E-01   4.000000E-01   4.000000E-01   4.000000E-01   4.000000E-01   4.000000E-01   4.000000E-01   4.000000E-01   4.000000E-01   4.000000E-01   4.000000E-01   4.000000E-01   4.000000E-01   4.000000E-01   4.000000E-01   4.000000E-01   4.000000E-01   4.000000E-01   4.000000E-01   4.000000E-01   4.000000E-01   4.000000E-01   4.000000E-01   4.000000E-01   4.000000E-01   4.000000E-01   4.000000E-01   4.000000E-01   4.000000E-01   4.000000E-01   4.000000E-01   4.000000E-01   4.000000E-01   4.000000E-01   4.000000E-01   4.000000E-01   4.000000E-01   4.000000E-01   4.000000E-01   4.000000E-01   4.000000E-01   4.000000E-01   4.000000E-01   4.000000E-01   4.000000E-01   4.000000E-01   4.000000E-01   4.000000E-01   4.000000E-01   4.000000E-01   4.000000E-01   4.000000E-01   4.000000E-01   4.000000E-01   4.000000E-01   4.000000E-01   4.000000E-01   4.000000E-01   4.000000E-01   4.000000E-01   4.000000E-01   4.000000E-01   4.000000E-01   4.000000E-01   4.000000E-01   4.000000E-01   4.000000E-01   4.000000E-01   4.000000E-01   4.000000E-01   4.000000E-01   4.000000E-01   4.000000E-01   4.000000E-01   4.000000E-01   4.000000E-01   4.000000E-01   4.000000E-01   4.000000E-01   4.000000E-01   4.000000E-01   4.000000E-01   4.000000E-01   4.000000E-01   4.000000E-01   4.000000E-01   4.000000E-01   4.000000E-01   4.000000E-01   4.000000E-01   4.000000E-01   4.000000E-01   4.000000E-01   4.000000E-01   4.000000E-01   4.000000E-01   4.000000E-01   4.000000E-01   4.000000E-01   4.000000E-01   4.000000E-01   4.000000E-01   4.000000E-01   4.000000E-01   4.000000E-01   4.000000E-01   4.000000E-01   4.000000E-01   4.000000E-01   4.000000E-01   4.000000E-01   4.000000E-01   4.000000E-01   4.000000E-01   4.000000E-01   4.000000E-01   4.000000E-01   4.000000E-01   4.000000E-01   4.000000E-01   4.000000E-01   4.000000E-01   4.000000E-01   4.000000E-01   4.000000E-01   4.000000E-01   4.000000E-01   4.000000E-01   4.000000E-01   4.000000E-01   4.000000E-01   4.000000E-01   4.000000E-01   4.000000E-01   4.000000E-01   4.000000E-01   4.000000E-01   4.000000E-01   4.000000E-01   4.000000E-01   4.000000E-01   4.000000E-01   4.000000E-01   4.000000E-01   4.000000E-01   4.000000E-01   4.000000E-01   4.000000E-01   4.000000E-01   4.000000E-01   4.000000E-01   4.000000E-01   4.000000E-01   4.000000E-01   4.000000E-01   4.000000E-01   4.000000E-01   4.000000E-01   4.000000E-01   4.000000E-01   4.000000E-01   4.000000E-01   4.000000E-01   4.000000E-01   4.000000E-01   4.000000E-01   4.000000E-01   4.000000E-01   4.000000E-01   4.000000E-01   4.000000E-01   4.000000E-01   4.000000E-01   4.000000E-01   4.000000E-01   4.000000E-01   4.000000E-01   4.000000E-01   4.000000E-01   4.000000E-01   4.000000E-01   4.000000E-01   4.000000E-01   4.000000E-01   4.000000E-01   4.000000E-01   4.000000E-01   4.000000E-01   4.000000E-01   4.000000E-01   4.000000E-01   4.000000E-01   4.000000E-01   4.000000E-01   4.000000E-01   4.000000E-01   4.000000E-01   4.000000E-01   4.000000E-01   4.000000E-01   4.000000E-01   4.000000E-01   4.000000E-01   4.000000E-01   4.000000E-01   4.000000E-01   4.000000E-01   4.000000E-01   4.000000E-01   4.000000E-01   4.000000E-01   4.000000E-01   4.000000E-01   4.000000E-01   4.000000E-01   4.000000E-01   4.000000E-01   4.000000E-01   4.000000E-01   4.000000E-01   4.000000E-01   4.000000E-01   4.000000E-01   4.000000E-01   4.000000E-01   4.000000E-01   4.000000E-01   4.000000E-01   4.000000E-01   4.000000E-01   4.000000E-01   4.000000E-01   4.000000E-01   4.000000E-01   4.000000E-01   4.000000E-01   4.000000E-01   4.000000E-01   4.000000E-01   4.000000E-01   4.000000E-01   4.000000E-01   4.000000E-01   4.000000E-01   4.000000E-01   4.000000E-01   4.000000E-01   4.000000E-01   4.000000E-01   4.000000E-01   4.000000E-01   