<?xml version="1.0"?>
<!-- Time =  2.6001176260279530E+00s -->
<VTKFile type="PolyData" version="0.1" byte_order="LittleEndian">
<PolyData>
<Piece NumberOfPoints="0000002400" NumberOfVerts="0" NumberOfLines="0" NumberOfStrips="0" NumberOfPolys="0">
<Points>
<DataArray type="Float32" Name="Position" NumberOfComponents="3" format="ascii">
  2.402580E+00   2.038895E-01   2.027946E-01   5.857291E+00   7.408123E+00   4.037774E+00   1.486009E+00   1.027858E+00   2.270753E+00   5.951219E+00   1.221735E+01   4.007603E+00   9.176793E+00   2.283487E+01   4.989910E+00   8.345450E+00   2.537079E-01   2.010819E+00   1.183568E+01   8.191350E-01   3.139929E+00   1.010415E+01   2.444639E+00   3.446658E+00   1.107792E+01   5.389260E-01   4.646986E+00   1.771981E+00   6.035995E-01   4.839660E+00   6.572021E+00   8.850963E-01   2.450945E+00   9.922026E+00   3.864226E+00   4.520980E+00   4.062195E+00   2.141634E-01   5.414052E-01   6.481543E+00   4.879553E+00   4.810668E+00   1.411627E+01   1.282832E+01   8.170900E-01   9.172211E+00   2.157428E+00   5.051168E-01   3.500888E+00   2.032611E-01   3.114147E+00   1.423678E+01   1.104534E+00   1.690241E+00   8.309082E+00   1.031148E+00   4.499478E+00   3.868596E+00   1.152436E+00   1.810870E+00   1.256246E+01   2.939673E-01   4.669364E+00   4.630950E+00   1.082558E+00   4.920833E+00   4.533194E+00   5.731364E-01   1.090504E+00   3.973709E+00   2.570396E-01   4.189152E+00   1.117675E+01   4.094888E-01   7.329462E-01   3.130571E+00   1.997669E-01   4.438744E+00   1.303775E+01   2.024925E+00   3.417479E+00   3.618659E+00   2.032460E+00   3.690852E+00   5.244469E+00   2.003579E-01   1.768114E+00   6.611042E+00   4.450400E+00   2.832066E+00   1.011961E+01   2.646870E+01   3.751967E+00   3.887815E+00   2.046877E-01   1.008594E+00   8.281891E+00   6.548991E+00   4.338047E+00   4.471653E+00   4.988183E+00   1.669614E+00   6.131188E+00   2.066229E-01   4.468429E+00   8.450973E+00   4.473515E+00   1.502157E+00   5.255336E+00   2.073696E-01   4.307478E+00   5.711441E+00   9.775226E-01   3.818985E-01   8.446275E+00   1.113646E+00   2.441753E+00   1.005765E+01   7.267039E-01   4.199914E+00   5.980552E+00   5.342178E-01   2.699820E-01   6.313704E+00   2.181166E-01   2.698373E+00   1.108421E+00   5.587670E-01   7.526783E-01   1.690577E+00   9.920289E+00   1.358104E+00   4.132506E+00   6.702781E-01   3.677790E-01   2.008259E+00   6.003714E-01   3.960813E+00   7.431767E+00   1.055314E+01   3.245347E+00   1.393037E+01   6.593829E-01   3.057666E+00   3.323476E+00   8.093030E-01   2.428708E+00   1.257291E+00   9.526737E+00   3.504529E+00   3.810183E+00   2.042406E-01   1.723473E+00   6.179688E+00   3.422886E+00   4.306903E+00   9.183492E+00   1.201781E+00   2.078686E+00   9.221843E+00   2.085577E-01   1.744192E+00   8.924027E+00   3.505570E+00   3.966214E+00   1.364351E+01   1.588427E+01   4.116251E+00   3.916256E+00   7.733472E-01   2.192176E+00   1.291689E+01   3.180023E+00   2.953043E+00   3.248552E+00   5.764134E-01   2.626382E-01   1.030923E+01   1.253643E+01   4.212299E-01   5.899168E+00   1.013250E+00   3.526728E+00   1.178854E+01   1.278738E+00   3.588106E+00   3.456767E+00   8.879102E-01   1.940953E+00   4.368427E+00   8.401241E-01   2.470035E+00   2.468258E+00   7.972184E-01   2.239233E-01   7.850616E+00   2.288773E-01   1.328744E+00   4.335787E+00   8.492547E-01   4.089501E+00   1.852383E+00   7.492032E+00   2.057199E-01   1.973460E+00   8.955897E-01   2.746930E-01   1.206738E+01   7.745991E-01   4.177177E+00   4.963573E+00   2.884060E-01   1.473403E+00   3.713306E+00   9.158371E-01   4.487602E+00   5.345653E+00   5.619997E-01   4.954997E+00   1.922528E+00   4.638363E+00   4.795512E+00   6.021920E+00   1.454715E+00   4.082268E+00   1.353416E+01   6.488615E-01   1.355544E+00   9.204856E+00   1.432408E+00   1.437430E+00   4.955806E+00   1.786637E+01   2.133295E+00   8.785822E+00   2.062248E+01   3.408264E+00   5.313879E+00   1.020949E+01   3.892026E+00   5.601132E+00   1.597179E+01   3.407624E+00   2.567636E+00   1.004806E+01   2.466439E+00   7.728024E+00   7.548200E+00   3.997670E+00   7.051437E+00   6.922883E+00   1.557728E+00   5.019253E+00   7.278703E+00   1.860353E+00   4.493869E+00   1.577035E+01   3.195449E+00   6.421169E+00   1.983635E-01   2.235482E+00   3.990619E-01   1.058444E+00   2.007272E+00   4.641987E+00   1.131850E+00   2.429439E+00   5.657592E+00   2.261533E-01   4.447522E+00   3.086719E+00   1.626613E+01   8.307417E-01   2.450209E+00   6.582354E+00   1.085631E+00   1.455966E+01   1.943119E+00   3.224864E+00   6.820754E+00   2.149916E-01   1.147601E+00   1.018249E+01   4.348440E+00   2.297489E+00   6.829947E+00   8.775650E-01   6.025599E-01   6.210903E+00   4.274640E+00   4.555135E+00   1.316197E+01   7.449125E+00   2.442276E+00   5.714726E+00   8.400417E+00   2.772536E+00   4.425346E+00   6.337683E+00   1.845757E+00   1.018863E+01   1.074150E+01   2.015086E+00   9.064253E-01   2.883061E-01   4.311028E+00   7.008074E+00   1.157067E+00   2.737007E+00   6.559098E+00   1.701392E+01   3.087639E+00   4.714775E+00   1.085238E+01   1.213787E+00   2.693961E+00   7.217435E-01   3.035162E+00   3.337461E+00   4.679177E+00   4.649225E+00   1.709101E+00   4.364156E+00   3.362785E-01   3.207973E+00   2.063602E-01   5.529269E-01   1.635310E+00   2.178080E-01   5.717331E-01   9.283525E+00   4.547211E+00   1.752293E+00   6.519051E+00   5.638193E-01   4.173807E+00   1.304251E+01   1.111248E+00   3.986335E+00   3.670571E+00   7.099817E+00   4.507686E+00   9.158149E+00   6.987671E+00   4.281513E+00   3.525491E-01   7.983652E-01   1.607074E+00   5.592099E+00   1.074097E+00   2.074852E+00   3.289370E+00   6.034317E-01   2.862681E+00   6.114339E-01   3.791319E-01   1.384959E+00   9.852178E+00   2.212154E-01   4.440359E-01   1.190414E+01   2.685771E+00   3.146400E+00   1.055643E+00   6.066434E-01   2.931545E+00   4.634574E+00   3.875658E+00   3.683736E+00   1.051026E+01   1.443919E+00   1.957007E-01   5.500205E+00   9.134449E-01   1.505830E+00   1.349983E+01   1.996441E+01   3.856686E+00   1.105322E+00   6.089335E-01   4.120437E+00   6.871284E+00   2.405344E+00   3.214245E+00   2.737246E+00   5.952419E+00   4.995503E+00   6.510521E+00   1.386649E+00   4.960846E+00   3.134253E+00   1.470712E+01   2.687475E+00   6.276933E+00   8.267919E-01   2.009887E-01   4.697823E+00   5.445057E-01   3.460496E+00   4.832452E+00   8.720898E-01   2.041675E+00   5.856741E+00   9.496455E-01   1.210346E+00   1.646103E+00   2.114604E-01   1.244784E+00   7.332732E+00   2.055988E+01   2.278960E+00   1.034773E+01   1.139631E+01   3.763542E+00   8.785286E+00   6.382969E+00   3.643617E+00   1.023084E+00   4.063240E+00   1.726584E+00   5.192500E+00   1.169913E+01   3.768416E+00   8.272738E+00   9.364868E-01   3.167536E+00   1.376824E+01   3.278835E-01   2.658152E+00   2.163117E+00   2.800468E-01   2.456442E+00   1.273548E+01   3.674077E+00   4.764394E+00   8.805262E+00   1.209159E+01   1.582548E+00   7.140095E+00   3.338320E-01   8.448057E-01   5.671703E+00   5.231261E-01   3.614545E+00   7.608143E+00   6.765360E-01   2.841934E+00   3.707623E+00   4.598134E+00   7.753788E-01   6.826118E+00   8.499928E-01   3.233119E+00   3.439155E+00   2.526238E-01   3.672445E+00   5.608715E+00   1.226318E+01   4.256958E+00   1.277670E+00   2.086409E-01   1.517120E+00   7.802592E+00   1.072232E+01   2.089969E+00   5.162654E+00   1.066992E+00   2.225408E+00   5.489968E+00   7.967434E-01   3.859808E+00   3.365702E+00   2.005741E-01   1.744948E+00   5.492394E+00   4.558925E+00   3.962122E+00   1.357479E+01   1.246210E+01   2.814305E+00   6.445877E+00   2.210610E-01   1.349389E+00   7.594268E+00   3.007246E-01   3.918119E+00   8.902468E+00   3.321617E-01   4.699522E+00   8.418977E+00   8.353282E+00   4.334808E+00   6.293643E+00   2.183878E+01   4.620020E+00   2.465625E-01   1.010459E+00   2.788296E-01   1.663446E+00   5.826162E-01   2.044079E-01   2.073383E+00   2.064532E-01   1.747163E+00   2.833873E-01   5.726283E-01   4.767655E-01   7.467391E+00   1.144474E+00   1.703135E+00   1.326349E+01   8.052980E+00   5.278066E-01   1.462470E+00   5.594245E-01   2.143112E+00   4.199996E+00   5.934098E-01   3.561886E+00   9.883577E+00   3.186324E-01   4.893836E+00   6.637951E+00   2.552656E-01   4.811927E+00   7.091784E+00   6.799298E-01   4.044341E+00   1.195691E+01   1.113292E+01   1.154622E+00   7.546844E+00   3.990905E+00   3.824062E+00   4.382192E+00   6.229880E-01   6.940848E-01   7.186817E+00   1.201092E+00   6.368293E-01   7.481564E+00   6.663047E+00   2.269692E+00   1.764441E+00   1.425108E+00   1.918848E+00   5.596468E+00   2.178761E-01   9.825282E-01   5.139654E+00   1.008125E+01   2.689321E+00   4.221193E+00   1.567919E+00   3.718436E+00   6.453296E+00   5.348765E-01   4.589009E+00   9.248943E+00   8.885294E+00   1.253357E+00   9.162718E-01   2.046598E-01   7.373058E-01   6.075003E+00   6.689568E-01   2.739487E+00   5.557823E+00   1.997192E-01   5.748698E-01   3.503057E+00   1.302450E+00   2.030983E+00   2.289052E-01   5.633782E-01   3.555073E+00   1.379903E+01   4.100931E+00   4.366537E+00   1.435078E+00   3.844726E+00   4.884664E+00   1.417199E+00   8.622000E-01   2.939171E+00   2.762430E+00   5.332931E-01   2.264871E-01   7.807369E+00   5.386179E+00   2.822721E+00   1.354854E+01   7.251041E+00   3.464431E-01   4.353370E+00   9.726007E-01   1.962258E+00   1.179835E+01   8.755759E+00   3.868175E-01   8.712502E+00   1.011045E+01   2.650903E+00   6.671452E+00   2.194252E+00   4.774124E+00   1.202686E+01   1.422073E+01   4.862381E+00   4.892706E+00   2.027366E-01   2.826656E+00   4.619130E+00   1.997173E-01   2.522815E+00   3.783601E-01   9.221122E-01   3.687262E+00   1.566024E+00   1.873543E+00   1.860757E+00   1.146710E+01   7.813631E-01   2.682506E+00   3.117416E-01   2.009205E-01   4.776531E+00   5.500168E+00   5.752411E-01   2.575631E-01   3.564851E+00   2.454892E-01   4.382438E+00   1.470837E+00   5.377023E+00   2.647476E+00   5.958771E+00   5.225412E+00   4.174428E+00   1.367642E+00   5.193385E+00   3.608256E+00   1.467962E+01   1.056256E+00  
[...]
<PointData Scalars="Diameter" Vectors="Velocity">
<DataArray type="Float32" Name="Diameter" format="ascii">
  4.000000E-01   4.000000E-01   4.000000E-01   4.000000E-01   4.000000E-01   4.000000E-01   4.000000E-01   4.000000E-01   4.000000E-01   4.000000E-01   4.000000E-01   4.000000E-01   4.000000E-01   4.000000E-01   4.000000E-01   4.000000E-01   4.000000E-01   4.000000E-01   4.000000E-01   4.000000E-01   4.000000E-01   4.000000E-01   4.000000E-01   4.000000E-01   4.000000E-01   4.000000E-01   4.000000E-01   4.000000E-01   4.000000E-01   4.000000E-01   4.000000E-01   4.000000E-01   4.000000E-01   4.000000E-01   4.000000E-01   4.000000E-01   4.000000E-01   4.000000E-01   4.000000E-01   4.000000E-01   4.000000E-01   4.000000E-01   4.000000E-01   4.000000E-01   4.000000E-01   4.000000E-01   4.000000E-01   4.000000E-01   4.000000E-01   4.000000E-01   4.000000E-01   4.000000E-01   4.000000E-01   4.000000E-01   4.000000E-01   4.000000E-01   4.000000E-01   4.000000E-01   4.000000E-01   4.000000E-01   4.000000E-01   4.000000E-01   4.000000E-01   4.000000E-01   4.000000E-01   4.000000E-01   4.000000E-01   4.000000E-01   4.000000E-01   4.000000E-01   4.000000E-01   4.000000E-01   4.000000E-01   4.000000E-01   4.000000E-01   4.000000E-01   4.000000E-01   4.000000E-01   4.000000E-01   4.000000E-01   4.000000E-01   4.000000E-01   4.000000E-01   4.000000E-01   4.000000E-01   4.000000E-01   4.000000E-01   4.000000E-01   4.000000E-01   4.000000E-01   4.000000E-01   4.000000E-01   4.000000E-01   4.000000E-01   4.000000E-01   4.000000E-01   4.000000E-01   4.000000E-01   4.000000E-01   4.000000E-01   4.000000E-01   4.000000E-01   4.000000E-01   4.000000E-01   4.000000E-01   4.000000E-01   4.000000E-01   4.000000E-01   4.000000E-01   4.000000E-01   4.000000E-01   4.000000E-01   4.000000E-01   4.000000E-01   4.000000E-01   4.000000E-01   4.000000E-01   4.000000E-01   4.000000E-01   4.000000E-01   4.000000E-01   4.000000E-01   4.000000E-01   4.000000E-01   4.000000E-01   4.000000E-01   4.000000E-01   4.000000E-01   4.000000E-01   4.000000E-01   4.000000E-01   4.000000E-01   4.000000E-01   4.000000E-01   4.000000E-01   4.000000E-01   4.000000E-01   4.000000E-01   4.000000E-01   4.000000E-01   4.000000E-01   4.000000E-01   4.000000E-01   4.000000E-01   4.000000E-01   4.000000E-01   4.000000E-01   4.000000E-01   4.000000E-01   4.000000E-01   4.000000E-01   4.000000E-01   4.000000E-01   4.000000E-01   4.000000E-01   4.000000E-01   4.000000E-01   4.000000E-01   4.000000E-01   4.000000E-01   4.000000E-01   4.000000E-01   4.000000E-01   4.000000E-01   4.000000E-01   4.000000E-01   4.000000E-01   4.000000E-01   4.000000E-01   4.000000E-01   4.000000E-01   4.000000E-01   4.000000E-01   4.000000E-01   4.000000E-01   4.000000E-01   4.000000E-01   4.000000E-01   4.000000E-01   4.000000E-01   4.000000E-01   4.000000E-01   4.000000E-01   4.000000E-01   4.000000E-01   4.000000E-01   4.000000E-01   4.000000E-01   4.000000E-01   4.000000E-01   4.000000E-01   4.000000E-01   4.000000E-01   4.000000E-01   4.000000E-01   4.000000E-01   4.000000E-01   4.000000E-01   4.000000E-01   4.000000E-01   4.000000E-01   4.000000E-01   4.000000E-01   4.000000E-01   4.000000E-01   4.000000E-01   4.000000E-01   4.000000E-01   4.000000E-01   4.000000E-01   4.000000E-01   4.000000E-01   4.000000E-01   4.000000E-01   4.000000E-01   4.000000E-01   4.000000E-01   4.000000E-01   4.000000E-01   4.000000E-01   4.000000E-01   4.000000E-01   4.000000E-01   4.000000E-01   4.000000E-01   4.000000E-01   4.000000E-01   4.000000E-01   4.000000E-01   4.000000E-01   4.000000E-01   4.000000E-01   4.000000E-01   4.000000E-01   4.000000E-01   4.000000E-01   4.000000E-01   4.000000E-01   4.000000E-01   4.000000E-01   4.000000E-01   4.000000E-01   4.000000E-01   4.000000E-01   4.000000E-01   4.000000E-01   4.000000E-01   4.000000E-01   4.000000E-01   4.000000E-01   4.000000E-01   4.000000E-01   4.000000E-01   4.000000E-01   4.000000E-01   4.000000E-01   4.000000E-01   4.000000E-01   4.000000E-01   4.000000E-01   4.000000E-01   4.000000E-01   4.000000E-01   4.000000E-01   4.000000E-01   4.000000E-01   4.000000E-01   4.000000E-01   4.000000E-01   4.000000E-01   4.000000E-01   4.000000E-01   4.000000E-01   4.000000E-01   4.000000E-01   4.000000E-01   4.000000E-01   4.000000E-01   4.000000E-01   4.000000E-01   4.000000E-01   4.000000E-01   4.000000E-01   4.000000E-01   4.000000E-01   4.000000E-01   4.000000E-01   4.000000E-01   4.000000E-01   4.000000E-01   4.000000E-01   4.000000E-01   4.000000E-01   4.000000E-01   4.000000E-01   4.000000E-01   4.000000E-01   4.000000E-01   4.000000E-01   4.000000E-01   4.000000E-01   4.000000E-01   4.000000E-01   4.000000E-01   4.000000E-01   4.000000E-01   4.000000E-01   4.000000E-01   4.000000E-01   4.000000E-01   4.000000E-01   4.000000E-01   4.000000E-01   4.000000E-01   4.000000E-01   4.000000E-01   4.000000E-01   4.000000E-01   4.000000E-01   4.000000E-01   4.000000E-01   4.000000E-01   4.000000E-01   4.000000E-01   4.000000E-01   4.000000E-01   4.000000E-01   4.000000E-01   4.000000E-01   4.000000E-01   4.000000E-01   4.000000E-01   4.000000E-01   4.000000E-01   4.000000E-01   4.000000E-01   4.000000E-01   4.000000E-01   4.000000E-01   4.000000E-01   4.000000E-01   4.000000E-01   4.000000E-01   4.000000E-01   4.000000E-01   4.000000E-01   4.000000E-01   4.000000E-01   4.000000E-01   4.000000E-01   4.000000E-01   4.000000E-01   4.000000E-01   4.000000E-01   4.000000E-01   4.000000E-01   4.000000E-01   4.000000E-01   4.000000E-01   4.000000E-01   4.000000E-01   4.000000E-01   4.000000E-01   4.000000E-01   4.000000E-01   4.000000E-01   4.000000E-01   4.000000E-01   4.000000E-01   4.000000E-01   4.000000E-01   4.000000E-01   4.000000E-01   4.000000E-01   4.000000E-01   4.000000E-01   4.000000E-01   4.000000E-01   4.000000E-01   4.000000E-01   4.000000E-01   4.000000E-01   4.000000E-01   4.000000E-01   4.000000E-01   4.000000E-01   4.000000E-01   4.000000E-01   4.000000E-01   4.000000E-01   4.000000E-01   4.000000E-01   4.000000E-01   4.000000E-01   4.000000E-01   4.000000E-01   4.000000E-01   4.000000E-01   4.000000E-01   4.000000E-01   4.000000E-01   4.000000E-01   4.000000E-01   4.000000E-01   4.000000E-01   4.000000E-01   4.000000E-01   4.000000E-01   4.000000E-01   4.000000E-01   4.000000E-01   4.000000E-01   4.000000E-01   4.000000E-01   4.000000E-01   4.000000E-01   4.000000E-01   4.000000E-01   4.000000E-01   4.000000E-01   4.000000E-01   4.000000E-01   4.000000E-01   4.000000E-01   4.000000E-01   4.000000E-01   4.000000E-01   4.000000E-01   4.000000E-01   4.000000E-01   4.000000E-01   4.000000E-01   4.000000E-01   4.000000E-01   4.000000E-01   4.000000E-01   4.000000E-01   4.000000E-01   4.000000E-01   4.000000E-01   4.000000E-01   4.000000E-01   4.000000E-01   4.000000E-01   4.000000E-01   4.000000E-01   4.000000E-01   4.000000E-01   4.000000E-01   4.000000E-01   4.000000E-01   4.000000E-01   4.000000E-01   4.000000E-01   4.000000E-01   4.000000E-01   4.000000E-01   4.000000E-01   4.000000E-01   4.000000E-01   4.000000E-01   4.000000E-01   4.000000E-01   4.000000E-01   4.000000E-01   4.000000E-01   4.000000E-01   4.000000E-01   4.000000E-01   4.000000E-01   4.000000E-01   4.000000E-01   4.000000E-01   4.000000E-01   4.000000E-01   4.000000E-01   4.000000E-01   4.000000E-01   4.000000E-01   4.000000E-01   4.000000E-01   4.000000E-01   4.000000E-01   4.000000E-01   4.000000E-01   4.000000E-01   4.000000E-01   4.000000E-01   4.000000E-01   4.000000E-01   4.000000E-01   4.000000E-01   4.000000E-01   4.000000E-01   4.000000E-01   4.000000E-01   4.000000E-01   4.000000E-01   4.000000E-01   4.000000E-01   4.000000E-01   4.000000E-01   4.000000E-01   4.000000E-01   4.000000E-01   4.000000E-01   4.000000E-01   4.000000E-01   4.000000E-01   4.000000E-01   4.000000E-01   4.000000E-01   4.000000E-01   4.000000E-01   4.000000E-01   4.000000E-01   4.000000E-01   4.000000E-01   4.000000E-01   4.000000E-01   4.000000E-01   4.000000E-01   4.000000E-01   4.000000E-01   4.000000E-01   4.000000E-01   4.000000E-01   4.000000E-01   4.000000E-01   4.000000E-01   4.000000E-01   4.000000E-01   4.000000E-01   4.000000E-01   4.000000E-01   4.000000E-01   4.000000E-01   4.000000E-01   4.000000E-01   4.000000E-01   4.000000E-01   4.000000E-01   4.000000E-01   4.000000E-01   4.000000E-01   4.000000E-01   4.000000E-01   4.000000E-01   4.000000E-01   4.000000E-01   4.000000E-01   4.000000E-01   4.000000E-01   4.000000E-01   4.000000E-01   4.000000E-01   4.000000E-01   4.000000E-01   4.000000E-01   4.000000E-01   4.000000E-01   4.000000E-01   4.000000E-01   4.000000E-01   4.000000E-01   4.000000E-01   4.000000E-01   4.000000E-01   4.000000E-01   4.000000E-01   4.000000E-01   4.000000E-01   4.000000E-01   4.000000E-01   4.000000E-01   4.000000E-01   4.000000E-01   4.000000E-01   4.000000E-01   4.000000E-01   4.000000E-01   4.000000E-01   4.000000E-01   4.000000E-01   4.000000E-01   4.000000E-01   4.000000E-01   4.000000E-01   4.000000E-01   4.000000E-01   4.000000E-01   4.000000E-01   4.000000E-01   4.000000E-01   4.000000E-01   4.000000E-01   4.000000E-01   4.000000E-01   4.000000E-01   4.000000E-01   4.000000E-01   4.000000E-01   4.000000E-01   4.000000E-01   4.000000E-01   4.000000E-01   4.000000E-01   4.000000E-01   4.000000E-01   4.000000E-01   4.000000E-01   4.000000E-01   4.000000E-01   4.000000E-01   4.000000E-01   4.000000E-01   4.000000E-01   4.000000E-01   4.000000E-01   4.000000E-01   4.000000E-01   4.000000E-01   4.000000E-01   4.000000E-01   4.000000E-01   4.000000E-01   4.000000E-01   4.000000E-01   4.000000E-01   4.000000E-01   4.000000E-01   4.000000E-01   4.000000E-01   4.000000E-01   4.000000E-01   4.000000E-01   4.000000E-01   4.000000E-01   4.000000E-01   4.000000E-01   4.000000E-01   4.000000E-01   4.000000E-01   4.000000E-01   4.000000E-01   4.000000E-01   4.000000E-01   4.000000E-01   4.000000E-01   4.000000E-01   4.000000E-01   4.000000E-01   4.000000E-01   4.000000E-01   4.000000E-01   4.000000E-01   4.000000E-01   4.000000E-01   4.000000E-01   4.000000E-01   4.000000E-01   4.000000E-01   4.000000E-01   4.000000E-01   4.000000E-01   4.000000E-01   4.000000E-01   4.000000E-01   4.000000E-01   4.000000E-01   4.000000E-01   4.000000E-01   4.000000E-01   4.000000E-01   4.000000E-01   4.000000E-01   4.000000E-01   4.000000E-01   4.000000E-01   4.000000E-01   4.000000E-01   4.000000E-01   4.000000E-01   4.000000E-01   4.000000E-01   4.000000E-01   4.000000E-01   4.000000E-01   4.000000E-01   4.000000E-01   4.000000E-01   4.000000E-01   4.000000E-01   4.000000E-01   4.000000E-01   4.000000E-01   4.000000E-01   4.000000E-01   4.000000E-01   4.000000E-01   4.000000E-01   4.000000E-01   4.000000E-01   4.000000E-01   4.000000E-01   4.000000E-01   4.000000E-01   4.000000E-01   4.000000E-01   4.000000E-01   4.000000E-01   4.000000E-01   4.000000E-01   4.000000E-01   4.000000E-01   4.000000E-01   4.000000E-01   4.000000E-01   4.000000E-01   4.000000E-01   4.000000E-01   4.000000E-01   4.000000E-01   4.000000E-01   4.000000E-01   4.000000E-01   4.000000E-01   4.000000E-01   4.000000E-01   4.000000E-01   4.000000E-01   4.000000E-01   4.000000E-01   4.000000E-01   4.000000E-01   4.000000E-01   4.000000E-01   4.000000E-01   4.000000E-01   4.000000E-01   4.000000E-01   4.000000E-01   4.000000E-01   4.000000E-01   4.000000E-01   4.000000E-01   4.000000E-01   4.000000E-01   4.000000E-01   4.000000E-01   4.000000E-01   4.000000E-01   4.000000E-01   4.000000E-01   4.000000E-01   4.000000E-01   4.000000E-01   4.000000E-01   4.000000E-01   4.000000E-01   4.000000E-01   4.000000E-01   4.000000E-01   4.000000E-01   4.000000E-01   4.000000E-01   4.000000E-01   4.000000E-01   4.000000E-01   4.000000E-01   4.000000E-01   4.000000E-01   4.000000E-01   4.000000E-01   4.000000E-01   4.000000E-01   4.000000E-01   4.000000E-01   4.000000E-01   4.000000E-01   4.000000E-01   4.000000E-01   4.000000E-01   4.000000E-01   4.000000E-01   4.000000E-01   4.000000E-01   4.000000E-01   4.000000E-01   4.000000E-01   4.000000E-01   4.000000E-01   4.000000E-01   4.000000E-01   4.000000E-01   4.000000E-01   4.000000E-01   4.000000E-01   4.000000E-01   4.000000E-01   4.000000E-01   4.000000E-01   4.000000E-01   4.000000E-01   4.000000E-01   4.000000E-01   4.000000E-01   4.000000E-01   4.000000E-01   4.000000E-01   4.000000E-01   4.000000E-01   4.000000E-01   4.000000E-01   4.000000E-01   4.000000E-01   4.000000E-01   4.000000E-01   4.000000E-01   4.000000E-01   4.000000E-01   4.000000E-01   4.000000E-01   4.000000E-01   4.000000E-01   4.000000E-01   4.000000E-01   4.000000E-01   4.000000E-01   4.000000E-01   4.000000E-01   4.000000E-01   4.000000E-01   4.000000E-01   4.000000E-01   4.000000E-01   4.000000E-01   4.000000E-01   4.000000E-01   4.000000E-01   4.000000E-01   4.000000E-01   4.000000E-01   4.000000E-01   4.000000E-01   4.000000E-01   4.000000E-01   4.000000E-01   4.000000E-01   4.000000E-01   4.000000E-01   4.000000E-01   4.000000E-01   4.000000E-01   4.000000E-01   4.000000E-01   4.000000E-01   4.000000E-01   4.000000E-01   4.000000E-01   4.000000E-01   4.000000E-01   4.000000E-01   4.000000E-01   4.000000E-01   4.000000E-01   4.000000E-01   4.000000E-01   4.000000E-01   4.000000E-01   4.000000E-01   4.000000E-01   4.000000E-01   4.000000E-01   4.000000E-01   4.000000E-01   4.000000E-01   4.000000E-01   4.000000E-01   4.000000E-01   4.000000E-01   4.000000E-01   4.000000E-01   4.000000E-01   4.000000E-01   4.000000E-01   4.000000E-01   4.000000E-01   4.000000E-01   4.000000E-01   4.000000E-01   4.000000E-01   4.000000E-01   4.000000E-01   4.000000E-01   4.000000E-01   4.000000E-01   4.000000E-01   4.000000E-01   4.000000E-01   4.000000E-01   4.000000E-01   4.000000E-01   4.000000E-01   4.000000E-01   4.000000E-01   4.000000E-01   4.000000E-01   4.000000E-01   4.000000E-01   4.000000E-01   4.000000E-01   4.000000E-01   4.000000E-01   4.000000E-01   4.000000E-01   4.000000E-01   4.000000E-01   4.000000E-01   4.000000E-01   4.000000E-01   4.000000E-01   4.000000E-01   4.000000E-01   4.000000E-01   4.000000E-01   4.000000E-01   4.000000E-01   4.000000E-01   4.000000E-01   4.000000E-01   4.000000E-01   4.000000E-01   4.000000E-01   4.000000E-01   4.000000E-01   4.000000E-01   4.000000E-01   4.000000E-01   4.000000E-01   4.000000E-01   4.000000E-01   4.000000E-01   4.000000E-01   4.000000E-01   4.000000E-01   4.000000E-01   4.000000E-01   4.000000E-01   4.000000E-01   4.000000E-01   4.000000E-01   4.000000E-01   4.000000E-01   4.000000E-01   4.000000E-01   4.000000E-01   4.000000E-01   4.000000E-01   4.000000E-01   4.000000E-01   4.000000E-01   4.000000E-01   4.000000E-01   4.000000E-01   4.000000E-01   4.000000E-01   4.000000E-01   4.000000E-01   4.000000E-01   4.000000E-01   4.000000E-01   4.000000E-01   4.000000E-01   4.000000E-01   4.000000E-01   4.000000E-01   4.000000E-01   4.000000E-01   4.000000E-01   4.000000E-01   4.000000E-01   4.000000E-01   4.000000E-01   4.000000E-01   4.000000E-01   4.000000E-01   4.000000E-01   4.000000E-01   4.000000E-01   4.000000E-01   4.000000E-01   4.000000E-01   4.000000E-01   4.000000E-01   4.000000E-01   4.000000E-01   4.000000E-01   4.000000E-01   4.000000E-01   4.000000E-01   4.000000E-01   4.000000E-01   4.000000E-01   4.000000E-01   4.000000E-01   4.000000E-01   4.000000E-01   4.000000E-01   4.000000E-01   4.000000E-01   4.000000E-01   4.000000E-01   4.000000E-01   4.000000E-01   4.000000E-01   4.000000E-01   4.000000E-01   4.000000E-01   4.000000E-01   4.000000E-01   4.000000E-01   4.000000E-01   4.000000E-01   4.000000E-01   4.000000E-01   4.000000E-01   4.000000E-01   4.000000E-01   4.000000E-01   4.000000E-01   4.000000E-01   4.000000E-01   4.000000E-01   4.000000E-01   4.000000E-01   4.000000E-01   4.000000E-01   4.000000E-01   4.000000E-01   4.000000E-01   4.000000E-01   4.000000E-01   4.000000E-01   4.000000E-01   4.000000E-01   4.000000E-01   4.000000E-01   4.000000E-01   4.000000E-01   4.000000E-01   4.000000E-01   4.000000E-01   4.000000E-01   4.000000E-01   4.000000E-01   4.000000E-01   4.000000E-01   4.000000E-01   4.000000E-01   4.000000E-01   4.000000E-01   4.000000E-01   4.000000E-01   4.000000E-01   4.000000E-01   4.000000E-01   4.000000E-01   4.000000E-01   4.000000E-01   4.000000E-01   4.000000E-01   4.000000E-01   4.000000E-01   4.000000E-01   4.000000E-01   4.000000E-01   4.000000E-01   4.000000E-01   4.000000E-01   4.000000E-01   4.000000E-01   4.000000E-01   4.000000E-01   4.000000E-01   4.000000E-01   4.000000E-01   4.000000E-01   4.000000E-01   4.000000E-01   4.000000E-01   4.000000E-01   4.000000E-01   4.000000E-01   4.000000E-01   4.000000E-01   4.000000E-01   4.000000E-01   4.000000E-01   4.000000E-01   4.000000E-01   4.000000E-01   4.000000E-01   4.000000E-01   4.000000E-01   4.000000E-01   4.000000E-01   4.000000E-01   4.000000E-01   4.000000E-01   4.000000E-01   4.000000E-01   4.000000E-01   4.000000E-01   4.000000E-01   4.000000E-01   4.000000E-01   4.000000E-01   4.000000E-01   4.000000E-01   4.000000E-01   4.000000E-01   4.000000E-01   4.000000E-01   4.000000E-01   4.000000E-01   4.000000E-01   4.000000E-01   4.000000E-01   4.000000E-01   4.000000E-01   4.000000E-01   4.000000E-01   4.000000E-01   4.000000E-01   4.000000E-01   4.000000E-01   4.000000E-01   4.000000E-01   4.000000E-01   4.000000E-01   4.000000E-01   4.000000E-01   4.000000E-01   4.000000E-01   4.000000E-01   4.000000E-01   4.000000E-01   4.000000E-01   4.000000E-01   4.000000E-01   4.000000E-01   4.000000E-01   4.000000E-01   4.000000E-01   4.000000E-01   4.000000E-01   4.000000E-01   4.000000E-01   4.000000E-01   4.000000E-01   4.000000E-01   4.000000E-01   4.000000E-01   4.000000E-01   4.000000E-01   4.000000E-01   4.000000E-01   4.000000E-01   4.000000E-01   4.000000E-01   4.000000E-01   4.000000E-01   4.000000E-01   4.000000E-01   4.000000E-01   4.000000E-01   4.000000E-01   4.000000E-01   4.000000E-01   4.000000E-01   4.000000E-01   4.000000E-01   4.000000E-01   4.000000E-01   4.000000E-01   4.000000E-01   4.000000E-01   4.000000E-01   4.000000E-01   4.000000E-01   4.000000E-01   4.000000E-01   4.000000E-01   4.000000E-01   4.000000E-01   4.000000E-01   4.000000E-01   4.000000E-01   4.000000E-01   4.000000E-01   4.000000E-01   4.000000E-01   4.000000E-01   4.000000E-01   4.000000E-01   4.000000E-01   4.000000E-01   4.000000E-01   4.000000E-01   4.000000E-01   4.000000E-01   4.000000E-01   4.000000E-01   4.000000E-01   4.000000E-01   4.000000E-01   4.000000E-01   4.000000E-01   4.000000E-01   4.000000E-01   4.000000E-01   4.000000E-01   4.000000E-01   4.000000E-01   4.000000E-01   4.000000E-01   4.000000E-01   4.000000E-01   4.000000E-01   4.000000E-01   4.000000E-01   4.000000E-01   4.000000E-01   4.000000E-01   4.000000E-01   4.000000E-01   4.000000E-01   4.000000E-01   4.000000E-01   4.000000E-01   4.000000E-01   4.000000E-01   4.000000E-01   4.000000E-01   4.000000E-01   4.000000E-01   4.000000E-01   4.000000E-01   4.000000E-01   4.000000E-01   4.000000E-01   4.000000E-01   4.000000E-01   4.000000E-01   4.000000E-01   4.000000E-01   4.000000E-01   4.000000E-01   4.000000E-01   4.000000E-01   4.000000E-01   4.000000E-01   4.000000E-01   4.000000E-01   4.000000E-01   4.000000E-01   4.000000E-01   4.000000E-01   4.000000E-01   4.000000E-01   4.000000E-01   4.000000E-01   4.000000E-01   4.000000E-01   4.000000E-01   4.000000E-01   4.000000E-01   4.000000E-01   4.000000E-01   4.000000E-01   4.000000E-01   4.000000E-01   4.000000E-01   4.000000E-01   4.000000E-01   4.000000E-01   4.000000E-01   4.000000E-01   4.000000E-01   4.000000E-01   4.000000E-01   4.000000E-01   4.000000E-01   4.000000E-01   4.000000E-01   4.000000E-01   4.000000E-01   4.000000E-01   4.000000E-01   4.000000E-01   4.000000E-01   4.000000E-01   4.000000E-01   4.000000E-01   4.000000E-01   4.000000E-01   4.000000E-01   4.000000E-01   4.000000E-01   4.000000E-01   4.000000E-01   4.000000E-01   4.000000E-01   4.000000E-01   4.000000E-01   4.000000E-01   4.000000E-01   4.000000E-01   4.000000E-01   4.000000E-01   4.000000E-01   4.000000E-01   4.000000E-01   4.000000E-01   4.000000E-01   