<?xml version="1.0"?>
<!-- Time =  3.9002976260278763E+00s -->
<VTKFile type="PolyData" version="0.1" byte_order="LittleEndian">
<PolyData>
<Piece NumberOfPoints="0000002400" NumberOfVerts="0" NumberOfLines="0" NumberOfStrips="0" NumberOfPolys="0">
<Points>
<DataArray type="Float32" Name="Position" NumberOfComponents="3" format="ascii">
  1.448628E+01   5.597250E+00   1.198178E+00   1.352008E+01   1.052226E+00   3.301673E+00   5.558186E+00   6.390996E+00   3.163618E+00   9.989446E+00   8.931358E-01   1.938807E+00   7.651792E+00   4.595759E-01   2.415144E+00   1.069227E+01   1.184763E+00   3.846716E+00   5.036566E+00   6.737428E+00   4.228448E-01   1.058226E+01   1.812008E+00   9.834014E-01   6.695636E+00   1.984551E-01   2.712569E+00   6.519549E+00   6.032101E-01   9.205918E-01   1.277200E+01   1.256744E+00   3.215320E+00   2.035545E+00   1.321048E+00   4.036464E+00   7.959471E+00   2.733477E+00   7.797688E-01   1.249575E+01   3.146569E-01   3.556650E+00   4.691476E+00   1.128416E+00   1.360812E+00   6.163459E-01   6.755867E+00   2.188550E+00   6.271591E+00   1.210804E+00   1.937976E+00   6.986676E+00   8.727633E+00   2.281326E+00   1.392037E+00   2.265917E-01   3.844329E+00   6.484556E+00   8.159630E-01   4.818182E+00   4.025813E+00   5.077825E-01   3.529909E+00   4.032351E+00   1.264874E+00   1.500704E+00   1.362658E+01   3.954311E-01   4.121903E+00   4.504297E+00   7.041527E+00   4.942088E+00   6.567628E+00   5.068690E+00   2.840908E+00   5.158071E+00   5.992714E+00   3.363074E+00   7.047637E+00   1.856425E+00   1.234866E+00   4.217153E+00   2.674425E-01   3.799485E+00   9.305690E-01   6.057281E-01   3.163030E+00   2.210083E+00   2.237468E-01   1.482274E+00   2.498053E+00   2.644761E-01   1.845850E+00   1.178934E+00   1.079630E+00   2.965115E-01   5.487235E+00   3.941537E-01   1.230402E+00   9.002984E+00   1.521362E+01   2.218017E+00   7.630477E+00   1.135772E+00   3.135979E+00   9.762814E+00   1.125803E+01   2.991384E+00   1.136753E+01   1.057718E+00   1.709643E+00   5.893787E+00   2.055769E-01   3.034942E+00   1.443580E+01   1.435320E+00   3.005514E+00   3.272792E+00   3.510122E+00   5.818269E-01   1.984351E+00   9.841406E+00   2.555841E+00   1.096196E+01   9.670630E+00   5.628902E-01   7.226911E+00   2.332290E+01   3.583524E+00   1.047392E+01   1.562157E+01   1.978681E+00   1.152128E+00   4.968473E+00   1.100494E+00   1.226485E+01   8.103167E-01   2.725237E+00   7.214153E+00   7.159586E+00   3.339067E+00   1.387574E+01   8.466370E+00   2.258039E+00   6.312923E+00   6.147097E-01   2.108177E+00   4.187337E+00   1.165087E+01   1.673688E+00   4.334590E-01   5.749680E-01   2.606638E+00   7.435287E+00   2.927672E-01   4.854437E+00   4.174434E+00   1.412173E+00   1.149274E+00   8.959746E+00   7.525392E+00   3.182382E+00   1.420164E+01   1.210530E+00   3.620392E+00   7.776834E+00   9.172076E-01   1.732563E+00   5.775908E-01   9.514369E-01   1.014359E+00   1.386842E+00   2.496940E-01   4.567675E+00   1.063505E+01   2.964877E-01   4.145203E+00   7.662066E+00   6.205718E+00   4.492260E+00   9.118764E+00   5.562337E-01   1.996140E+00   8.099831E+00   1.380003E+00   3.136921E+00   5.946572E+00   2.002399E-01   6.159185E-01   7.697842E+00   8.533495E+00   3.302251E+00   7.376853E+00   1.413002E+00   2.719011E+00   7.283985E+00   6.356909E+00   4.328554E+00   1.389404E+01   2.700517E-01   1.109409E+00   4.891055E+00   4.253125E+00   2.404657E+00   1.139405E+01   1.378825E+00   2.320054E+00   4.880723E+00   2.000328E-01   9.231887E-01   3.971999E+00   7.615004E+00   4.462189E+00   1.041452E+01   2.810297E-01   3.705090E+00   7.351975E+00   6.728009E+00   1.417519E+00   6.691754E+00   1.761002E+00   2.593691E+00   4.101264E+00   9.705162E+00   4.598186E+00   6.756806E+00   6.393231E-01   4.470774E+00   7.600809E+00   1.685769E+01   2.908294E+00   5.928893E-01   2.818180E+00   3.248489E+00   2.122666E-01   2.080791E-01   2.909313E-01   5.751878E+00   5.834023E+00   2.728100E+00   1.996489E+00   5.689742E-01   3.723845E+00   6.799097E+00   7.368477E+00   3.824171E+00   4.789986E+00   8.534645E-01   2.923184E+00   6.172242E+00   2.028774E-01   2.025220E+00   5.394464E+00   2.040085E-01   1.998482E+00   5.969536E+00   5.466054E-01   1.300736E+00   4.502456E+00   1.336976E+00   2.341140E+00   3.663577E+00   8.943235E-01   4.956956E-01   2.348199E+00   2.599441E-01   3.910880E+00   1.152436E+00   7.234665E-01   6.730221E-01   6.177649E+00   2.555397E+00   1.258861E+00   1.396641E+01   2.149388E+00   1.948995E+00   1.063111E+01   7.425839E+00   1.035058E+00   5.817113E+00   5.027960E+00   1.990059E+00   1.400756E+01   9.732262E-01   1.582410E+00   4.893900E+00   5.924087E-01   3.543485E+00   5.002999E+00   4.204550E+00   1.640103E+00   1.075113E+01   9.223813E-01   4.302419E+00   1.286625E+01   8.207482E-01   4.243787E+00   5.523707E+00   5.732939E-01   1.966822E+00   1.131108E+01   1.549422E+01   4.112166E+00   6.663868E+00   3.478749E+00   7.745327E-01   1.117621E+01   2.272950E-01   2.627761E+00   4.371883E+00   1.615949E+01   2.232996E+00   4.608913E+00   1.570131E+00   2.808209E+00   5.382774E+00   9.720579E+00   3.395435E+00   1.484897E+00   8.789417E+00   1.616730E+00   6.395813E+00   2.113768E-01   8.707996E-01   1.265210E+01   1.099765E+00   2.585450E+00   5.939058E+00   3.202994E+00   1.531512E+00   3.278202E+00   9.523693E-01   1.901196E+00   9.450752E+00   9.922370E+00   4.620254E+00   6.536165E+00   2.154942E+00   6.190414E-01   9.277344E-01   4.786486E+00   2.407813E+00   9.485181E-01   1.263058E+00   1.403309E+00   6.641667E+00   2.932815E-01   3.187372E+00   3.491905E+00   6.019908E-01   2.606719E-01   5.677758E+00   8.530424E-01   4.688834E+00   2.348203E+00   4.144757E-01   3.537827E+00   1.926854E-01   1.147877E+00   1.006565E+00   6.160094E+00   4.402879E+00   2.995862E+00   1.188001E+01   2.226223E-01   4.792041E+00   5.501137E+00   7.640767E-01   3.847225E+00   6.397448E+00   1.027569E+00   2.880859E+00   1.045901E+01   1.270290E+01   4.375409E+00   6.632749E-01   1.199223E+00   2.557659E+00   6.088199E+00   3.580738E-01   1.632675E+00   4.351674E+00   6.076833E-01   1.131802E+00   6.636126E+00   5.979394E+00   1.699118E+00   1.168627E+01   2.617569E+00   4.577685E+00   1.572134E+00   6.359999E-01   3.331634E+00   9.411915E+00   4.885270E+00   4.619182E+00   4.756355E+00   6.630161E-01   4.378415E+00   1.349681E+01   1.290713E+00   2.264105E+00   6.537224E+00   4.552327E+00   4.359487E+00   4.180255E+00   2.022660E-01   3.326654E+00   1.268387E+01   8.853673E+00   1.978942E+00   5.652685E+00   7.808326E-01   1.225634E+00   5.589918E+00   4.799350E+00   3.970235E+00   2.423995E+00   1.468729E+00   1.222922E+00   1.302295E+01   1.318882E+00   2.163581E+00   2.735940E+00   1.175580E+01   2.175354E+00   5.296445E+00   5.292467E-01   4.976797E+00   6.630826E+00   1.687547E+00   8.665035E-01   5.943669E+00   4.924988E+00   2.459237E+00   8.253781E+00   1.434183E+00   5.285723E-01   1.122023E+01   2.036014E-01   4.389235E+00   1.291082E+01   4.110788E+00   1.667267E+00   1.084301E+01   6.043432E+00   2.677899E+00   7.948898E+00   5.586824E+00   4.012179E+00   1.066732E+01   2.379548E+00   4.307507E+00   1.466199E+01   3.810662E-01   4.243258E-01   1.084947E+01   2.579418E+00   2.903157E-01   5.780381E+00   1.457669E+00   1.546313E+00   2.997840E+00   2.531530E-01   2.032212E-01   7.713266E+00   4.247186E-01   2.934322E+00   3.303433E+00   1.189559E+00   2.689403E-01   1.603989E+00   2.302675E-01   2.470258E-01   1.027035E+00   8.139557E+00   1.985837E+00   1.215690E+01   8.152990E-01   2.040123E+00   5.915010E+00   8.752763E-01   2.942799E+00   4.485198E+00   7.257787E-01   4.992843E+00   6.155429E+00   8.498044E+00   2.309181E+00   2.530065E-01   1.445439E+01   4.001520E+00   6.751486E+00   1.771672E+00   3.478115E+00   6.371224E+00   3.971553E+00   1.370510E+00   8.942103E+00   1.203140E+01   4.027702E+00   1.398025E+01   2.674103E+00   2.103808E+00   3.367242E+00   1.992094E-01   4.589886E+00   8.942870E+00   4.357760E-01   6.875061E-01   4.629545E+00   1.043383E+00   1.785115E+00   1.656301E+00   1.264598E+01   4.082599E+00   3.481903E+00   4.144979E+00   4.229233E-01   7.645085E+00   7.587179E+00   4.424252E+00   9.932961E+00   3.244927E+00   3.323281E+00   4.788770E-01   1.248792E+00   3.992492E+00   5.547348E+00   2.082418E-01   3.709812E+00   3.090089E+00   9.619825E-01   2.642088E+00   4.558805E+00   2.283881E-01   1.160366E+00   3.034311E+00   9.240299E-01   4.063962E+00   4.972027E-01   7.757113E-01   4.782877E+00   8.473835E+00   3.772359E-01   4.367098E+00   3.750422E+00   1.051428E+01   2.139865E+00   3.221339E+00   7.950351E-01   1.304667E+00   4.449693E+00   5.750481E+00   3.190252E-01   8.900832E+00   2.379786E+00   1.847661E+00   1.384426E+01   2.259583E+00   3.242491E+00   6.477709E+00   4.979637E+00   3.503028E+00   9.586513E+00   1.192943E+01   3.416255E+00   4.468339E+00   1.991456E-01   2.429168E+00   3.614870E+00   7.858414E+00   7.900606E-01   5.447136E+00   1.218214E+00   1.462292E+00   1.195685E+01   7.661424E-01   3.126952E+00   4.246061E-01   1.328684E+00   4.063054E-01   1.013598E+01   3.411518E-01   4.700868E+00   2.560762E+00   7.188031E-01   3.292133E+00   5.175846E+00   6.062350E-01   4.594505E+00   1.039779E+01   1.127039E+00   3.427896E+00   1.872384E+00   6.312778E-01   2.854003E+00   3.411759E+00   9.114059E-01   2.342359E+00   5.491117E+00   4.036024E+00   4.380570E+00   1.461873E+01   1.933302E+00   4.306049E+00   9.407112E+00   5.308372E-01   3.393827E+00   7.927368E+00   9.509891E-01   2.135126E+00   6.482213E+00   3.680130E+00   2.807620E+00   6.650937E+00   9.042362E+00   1.613471E+00   9.248635E+00   7.715181E-01   7.608423E-01   4.652077E+00   2.003854E-01   4.738922E+00   1.316623E+01   1.655197E+00   3.926516E+00   1.285067E+01   1.563308E+00   1.935754E+00   6.861128E+00   2.383005E-01   2.174193E-01   2.695340E+00   2.837511E-01   5.668873E-01   4.121873E+00   2.059129E-01   1.015120E+00   1.081394E+01   5.765368E+00   1.159581E+00   5.215558E-01   8.990081E+00  
[...]
<PointData Scalars="Diameter" Vectors="Velocity">
<DataArray type="Float32" Name="Diameter" format="ascii">
  4.000000E-01   4.000000E-01   4.000000E-01   4.000000E-01   4.000000E-01   4.000000E-01   4.000000E-01   4.000000E-01   4.000000E-01   4.000000E-01   4.000000E-01   4.000000E-01   4.000000E-01   4.000000E-01   4.000000E-01   4.000000E-01   4.000000E-01   4.000000E-01   4.000000E-01   4.000000E-01   4.000000E-01   4.000000E-01   4.000000E-01   4.000000E-01   4.000000E-01   4.000000E-01   4.000000E-01   4.000000E-01   4.000000E-01   4.000000E-01   4.000000E-01   4.000000E-01   4.000000E-01   4.000000E-01   4.000000E-01   4.000000E-01   4.000000E-01   4.000000E-01   4.000000E-01   4.000000E-01   4.000000E-01   4.000000E-01   4.000000E-01   4.000000E-01   4.000000E-01   4.000000E-01   4.000000E-01   4.000000E-01   4.000000E-01   4.000000E-01   4.000000E-01   4.000000E-01   4.000000E-01   4.000000E-01   4.000000E-01   4.000000E-01   4.000000E-01   4.000000E-01   4.000000E-01   4.000000E-01   4.000000E-01   4.000000E-01   4.000000E-01   4.000000E-01   4.000000E-01   4.000000E-01   4.000000E-01   4.000000E-01   4.000000E-01   4.000000E-01   4.000000E-01   4.000000E-01   4.000000E-01   4.000000E-01   4.000000E-01   4.000000E-01   4.000000E-01   4.000000E-01   4.000000E-01   4.000000E-01   4.000000E-01   4.000000E-01   4.000000E-01   4.000000E-01   4.000000E-01   4.000000E-01   4.000000E-01   4.000000E-01   4.000000E-01   4.000000E-01   4.000000E-01   4.000000E-01   4.000000E-01   4.000000E-01   4.000000E-01   4.000000E-01   4.000000E-01   4.000000E-01   4.000000E-01   4.000000E-01   4.000000E-01   4.000000E-01   4.000000E-01   4.000000E-01   4.000000E-01   4.000000E-01   4.000000E-01   4.000000E-01   4.000000E-01   4.000000E-01   4.000000E-01   4.000000E-01   4.000000E-01   4.000000E-01   4.000000E-01   4.000000E-01   4.000000E-01   4.000000E-01   4.000000E-01   4.000000E-01   4.000000E-01   4.000000E-01   4.000000E-01   4.000000E-01   4.000000E-01   4.000000E-01   4.000000E-01   4.000000E-01   4.000000E-01   4.000000E-01   4.000000E-01   4.000000E-01   4.000000E-01   4.000000E-01   4.000000E-01   4.000000E-01   4.000000E-01   4.000000E-01   4.000000E-01   4.000000E-01   4.000000E-01   4.000000E-01   4.000000E-01   4.000000E-01   4.000000E-01   4.000000E-01   4.000000E-01   4.000000E-01   4.000000E-01   4.000000E-01   4.000000E-01   4.000000E-01   4.000000E-01   4.000000E-01   4.000000E-01   4.000000E-01   4.000000E-01   4.000000E-01   4.000000E-01   4.000000E-01   4.000000E-01   4.000000E-01   4.000000E-01   4.000000E-01   4.000000E-01   4.000000E-01   4.000000E-01   4.000000E-01   4.000000E-01   4.000000E-01   4.000000E-01   4.000000E-01   4.000000E-01   4.000000E-01   4.000000E-01   4.000000E-01   4.000000E-01   4.000000E-01   4.000000E-01   4.000000E-01   4.000000E-01   4.000000E-01   4.000000E-01   4.000000E-01   4.000000E-01   4.000000E-01   4.000000E-01   4.000000E-01   4.000000E-01   4.000000E-01   4.000000E-01   4.000000E-01   4.000000E-01   4.000000E-01   4.000000E-01   4.000000E-01   4.000000E-01   4.000000E-01   4.000000E-01   4.000000E-01   4.000000E-01   4.000000E-01   4.000000E-01   4.000000E-01   4.000000E-01   4.000000E-01   4.000000E-01   4.000000E-01   4.000000E-01   4.000000E-01   4.000000E-01   4.000000E-01   4.000000E-01   4.000000E-01   4.000000E-01   4.000000E-01   4.000000E-01   4.000000E-01   4.000000E-01   4.000000E-01   4.000000E-01   4.000000E-01   4.000000E-01   4.000000E-01   4.000000E-01   4.000000E-01   4.000000E-01   4.000000E-01   4.000000E-01   4.000000E-01   4.000000E-01   4.000000E-01   4.000000E-01   4.000000E-01   4.000000E-01   4.000000E-01   4.000000E-01   4.000000E-01   4.000000E-01   4.000000E-01   4.000000E-01   4.000000E-01   4.000000E-01   4.000000E-01   4.000000E-01   4.000000E-01   4.000000E-01   4.000000E-01   4.000000E-01   4.000000E-01   4.000000E-01   4.000000E-01   4.000000E-01   4.000000E-01   4.000000E-01   4.000000E-01   4.000000E-01   4.000000E-01   4.000000E-01   4.000000E-01   4.000000E-01   4.000000E-01   4.000000E-01   4.000000E-01   4.000000E-01   4.000000E-01   4.000000E-01   4.000000E-01   4.000000E-01   4.000000E-01   4.000000E-01   4.000000E-01   4.000000E-01   4.000000E-01   4.000000E-01   4.000000E-01   4.000000E-01   4.000000E-01   4.000000E-01   4.000000E-01   4.000000E-01   4.000000E-01   4.000000E-01   4.000000E-01   4.000000E-01   4.000000E-01   4.000000E-01   4.000000E-01   4.000000E-01   4.000000E-01   4.000000E-01   4.000000E-01   4.000000E-01   4.000000E-01   4.000000E-01   4.000000E-01   4.000000E-01   4.000000E-01   4.000000E-01   4.000000E-01   4.000000E-01   4.000000E-01   4.000000E-01   4.000000E-01   4.000000E-01   4.000000E-01   4.000000E-01   4.000000E-01   4.000000E-01   4.000000E-01   4.000000E-01   4.000000E-01   4.000000E-01   4.000000E-01   4.000000E-01   4.000000E-01   4.000000E-01   4.000000E-01   4.000000E-01   4.000000E-01   4.000000E-01   4.000000E-01   4.000000E-01   4.000000E-01   4.000000E-01   4.000000E-01   4.000000E-01   4.000000E-01   4.000000E-01   4.000000E-01   4.000000E-01   4.000000E-01   4.000000E-01   4.000000E-01   4.000000E-01   4.000000E-01   4.000000E-01   4.000000E-01   4.000000E-01   4.000000E-01   4.000000E-01   4.000000E-01   4.000000E-01   4.000000E-01   4.000000E-01   4.000000E-01   4.000000E-01   4.000000E-01   4.000000E-01   4.000000E-01   4.000000E-01   4.000000E-01   4.000000E-01   4.000000E-01   4.000000E-01   4.000000E-01   4.000000E-01   4.000000E-01   4.000000E-01   4.000000E-01   4.000000E-01   4.000000E-01   4.000000E-01   4.000000E-01   4.000000E-01   4.000000E-01   4.000000E-01   4.000000E-01   4.000000E-01   4.000000E-01   4.000000E-01   4.000000E-01   4.000000E-01   4.000000E-01   4.000000E-01   4.000000E-01   4.000000E-01   4.000000E-01   4.000000E-01   4.000000E-01   4.000000E-01   4.000000E-01   4.000000E-01   4.000000E-01   4.000000E-01   4.000000E-01   4.000000E-01   4.000000E-01   4.000000E-01   4.000000E-01   4.000000E-01   4.000000E-01   4.000000E-01   4.000000E-01   4.000000E-01   4.000000E-01   4.000000E-01   4.000000E-01   4.000000E-01   4.000000E-01   4.000000E-01   4.000000E-01   4.000000E-01   4.000000E-01   4.000000E-01   4.000000E-01   4.000000E-01   4.000000E-01   4.000000E-01   4.000000E-01   4.000000E-01   4.000000E-01   4.000000E-01   4.000000E-01   4.000000E-01   4.000000E-01   4.000000E-01   4.000000E-01   4.000000E-01   4.000000E-01   4.000000E-01   4.000000E-01   4.000000E-01   4.000000E-01   4.000000E-01   4.000000E-01   4.000000E-01   4.000000E-01   4.000000E-01   4.000000E-01   4.000000E-01   4.000000E-01   4.000000E-01   4.000000E-01   4.000000E-01   4.000000E-01   4.000000E-01   4.000000E-01   4.000000E-01   4.000000E-01   4.000000E-01   4.000000E-01   4.000000E-01   4.000000E-01   4.000000E-01   4.000000E-01   4.000000E-01   4.000000E-01   4.000000E-01   4.000000E-01   4.000000E-01   4.000000E-01   4.000000E-01   4.000000E-01   4.000000E-01   4.000000E-01   4.000000E-01   4.000000E-01   4.000000E-01   4.000000E-01   4.000000E-01   4.000000E-01   4.000000E-01   4.000000E-01   4.000000E-01   4.000000E-01   4.000000E-01   4.000000E-01   4.000000E-01   4.000000E-01   4.000000E-01   4.000000E-01   4.000000E-01   4.000000E-01   4.000000E-01   4.000000E-01   4.000000E-01   4.000000E-01   4.000000E-01   4.000000E-01   4.000000E-01   4.000000E-01   4.000000E-01   4.000000E-01   4.000000E-01   4.000000E-01   4.000000E-01   4.000000E-01   4.000000E-01   4.000000E-01   4.000000E-01   4.000000E-01   4.000000E-01   4.000000E-01   4.000000E-01   4.000000E-01   4.000000E-01   4.000000E-01   4.000000E-01   4.000000E-01   4.000000E-01   4.000000E-01   4.000000E-01   4.000000E-01   4.000000E-01   4.000000E-01   4.000000E-01   4.000000E-01   4.000000E-01   4.000000E-01   4.000000E-01   4.000000E-01   4.000000E-01   4.000000E-01   4.000000E-01   4.000000E-01   4.000000E-01   4.000000E-01   4.000000E-01   4.000000E-01   4.000000E-01   4.000000E-01   4.000000E-01   4.000000E-01   4.000000E-01   4.000000E-01   4.000000E-01   4.000000E-01   4.000000E-01   4.000000E-01   4.000000E-01   4.000000E-01   4.000000E-01   4.000000E-01   4.000000E-01   4.000000E-01   4.000000E-01   4.000000E-01   4.000000E-01   4.000000E-01   4.000000E-01   4.000000E-01   4.000000E-01   4.000000E-01   4.000000E-01   4.000000E-01   4.000000E-01   4.000000E-01   4.000000E-01   4.000000E-01   4.000000E-01   4.000000E-01   4.000000E-01   4.000000E-01   4.000000E-01   4.000000E-01   4.000000E-01   4.000000E-01   4.000000E-01   4.000000E-01   4.000000E-01   4.000000E-01   4.000000E-01   4.000000E-01   4.000000E-01   4.000000E-01   4.000000E-01   4.000000E-01   4.000000E-01   4.000000E-01   4.000000E-01   4.000000E-01   4.000000E-01   4.000000E-01   4.000000E-01   4.000000E-01   4.000000E-01   4.000000E-01   4.000000E-01   4.000000E-01   4.000000E-01   4.000000E-01   4.000000E-01   4.000000E-01   4.000000E-01   4.000000E-01   4.000000E-01   4.000000E-01   4.000000E-01   4.000000E-01   4.000000E-01   4.000000E-01   4.000000E-01   4.000000E-01   4.000000E-01   4.000000E-01   4.000000E-01   4.000000E-01   4.000000E-01   4.000000E-01   4.000000E-01   4.000000E-01   4.000000E-01   4.000000E-01   4.000000E-01   4.000000E-01   4.000000E-01   4.000000E-01   4.000000E-01   4.000000E-01   4.000000E-01   4.000000E-01   4.000000E-01   4.000000E-01   4.000000E-01   4.000000E-01   4.000000E-01   4.000000E-01   4.000000E-01   4.000000E-01   4.000000E-01   4.000000E-01   4.000000E-01   4.000000E-01   4.000000E-01   4.000000E-01   4.000000E-01   4.000000E-01   4.000000E-01   4.000000E-01   4.000000E-01   4.000000E-01   4.000000E-01   4.000000E-01   4.000000E-01   4.000000E-01   4.000000E-01   4.000000E-01   4.000000E-01   4.000000E-01   4.000000E-01   4.000000E-01   4.000000E-01   4.000000E-01   4.000000E-01   4.000000E-01   4.000000E-01   4.000000E-01   4.000000E-01   4.000000E-01   4.000000E-01   4.000000E-01   4.000000E-01   4.000000E-01   4.000000E-01   4.000000E-01   4.000000E-01   4.000000E-01   4.000000E-01   4.000000E-01   4.000000E-01   4.000000E-01   4.000000E-01   4.000000E-01   4.000000E-01   4.000000E-01   4.000000E-01   4.000000E-01   4.000000E-01   4.000000E-01   4.000000E-01   4.000000E-01   4.000000E-01   4.000000E-01   4.000000E-01   4.000000E-01   4.000000E-01   4.000000E-01   4.000000E-01   4.000000E-01   4.000000E-01   4.000000E-01   4.000000E-01   4.000000E-01   4.000000E-01   4.000000E-01   4.000000E-01   4.000000E-01   4.000000E-01   4.000000E-01   4.000000E-01   4.000000E-01   4.000000E-01   4.000000E-01   4.000000E-01   4.000000E-01   4.000000E-01   4.000000E-01   4.000000E-01   4.000000E-01   4.000000E-01   4.000000E-01   4.000000E-01   4.000000E-01   4.000000E-01   4.000000E-01   4.000000E-01   4.000000E-01   4.000000E-01   4.000000E-01   4.000000E-01   4.000000E-01   4.000000E-01   4.000000E-01   4.000000E-01   4.000000E-01   4.000000E-01   4.000000E-01   4.000000E-01   4.000000E-01   4.000000E-01   4.000000E-01   4.000000E-01   4.000000E-01   4.000000E-01   4.000000E-01   4.000000E-01   4.000000E-01   4.000000E-01   4.000000E-01   4.000000E-01   4.000000E-01   4.000000E-01   4.000000E-01   4.000000E-01   4.000000E-01   4.000000E-01   4.000000E-01   4.000000E-01   4.000000E-01   4.000000E-01   4.000000E-01   4.000000E-01   4.000000E-01   4.000000E-01   4.000000E-01   4.000000E-01   4.000000E-01   4.000000E-01   4.000000E-01   4.000000E-01   4.000000E-01   4.000000E-01   4.000000E-01   4.000000E-01   4.000000E-01   4.000000E-01   4.000000E-01   4.000000E-01   4.000000E-01   4.000000E-01   4.000000E-01   4.000000E-01   4.000000E-01   4.000000E-01   4.000000E-01   4.000000E-01   4.000000E-01   4.000000E-01   4.000000E-01   4.000000E-01   4.000000E-01   4.000000E-01   4.000000E-01   4.000000E-01   4.000000E-01   4.000000E-01   4.000000E-01   4.000000E-01   4.000000E-01   4.000000E-01   4.000000E-01   4.000000E-01   4.000000E-01   4.000000E-01   4.000000E-01   4.000000E-01   4.000000E-01   4.000000E-01   4.000000E-01   4.000000E-01   4.000000E-01   4.000000E-01   4.000000E-01   4.000000E-01   4.000000E-01   4.000000E-01   4.000000E-01   4.000000E-01   4.000000E-01   4.000000E-01   4.000000E-01   4.000000E-01   4.000000E-01   4.000000E-01   4.000000E-01   4.000000E-01   4.000000E-01   4.000000E-01   4.000000E-01   4.000000E-01   4.000000E-01   4.000000E-01   4.000000E-01   4.000000E-01   4.000000E-01   4.000000E-01   4.000000E-01   4.000000E-01   4.000000E-01   4.000000E-01   4.000000E-01   4.000000E-01   4.000000E-01   4.000000E-01   4.000000E-01   4.000000E-01   4.000000E-01   4.000000E-01   4.000000E-01   4.000000E-01   4.000000E-01   4.000000E-01   4.000000E-01   4.000000E-01   4.000000E-01   4.000000E-01   4.000000E-01   4.000000E-01   4.000000E-01   4.000000E-01   4.000000E-01   4.000000E-01   4.000000E-01   4.000000E-01   4.000000E-01   4.000000E-01   4.000000E-01   4.000000E-01   4.000000E-01   4.000000E-01   4.000000E-01   4.000000E-01   4.000000E-01   4.000000E-01   4.000000E-01   4.000000E-01   4.000000E-01   4.000000E-01   4.000000E-01   4.000000E-01   4.000000E-01   4.000000E-01   4.000000E-01   4.000000E-01   4.000000E-01   4.000000E-01   4.000000E-01   4.000000E-01   4.000000E-01   4.000000E-01   4.000000E-01   4.000000E-01   4.000000E-01   4.000000E-01   4.000000E-01   4.000000E-01   4.000000E-01   4.000000E-01   4.000000E-01   4.000000E-01   4.000000E-01   4.000000E-01   4.000000E-01   4.000000E-01   4.000000E-01   4.000000E-01   4.000000E-01   4.000000E-01   4.000000E-01   4.000000E-01   4.000000E-01   4.000000E-01   4.000000E-01   4.000000E-01   4.000000E-01   4.000000E-01   4.000000E-01   4.000000E-01   4.000000E-01   4.000000E-01   4.000000E-01   4.000000E-01   4.000000E-01   4.000000E-01   4.000000E-01   4.000000E-01   4.000000E-01   4.000000E-01   4.000000E-01   4.000000E-01   4.000000E-01   4.000000E-01   4.000000E-01   4.000000E-01   4.000000E-01   4.000000E-01   4.000000E-01   4.000000E-01   4.000000E-01   4.000000E-01   4.000000E-01   4.000000E-01   4.000000E-01   4.000000E-01   4.000000E-01   4.000000E-01   4.000000E-01   4.000000E-01   4.000000E-01   4.000000E-01   4.000000E-01   4.000000E-01   4.000000E-01   4.000000E-01   4.000000E-01   4.000000E-01   4.000000E-01   4.000000E-01   4.000000E-01   4.000000E-01   4.000000E-01   4.000000E-01   4.000000E-01   4.000000E-01   4.000000E-01   4.000000E-01   4.000000E-01   4.000000E-01   4.000000E-01   4.000000E-01   4.000000E-01   4.000000E-01   4.000000E-01   4.000000E-01   4.000000E-01   4.000000E-01   4.000000E-01   4.000000E-01   4.000000E-01   4.000000E-01   4.000000E-01   4.000000E-01   4.000000E-01   4.000000E-01   4.000000E-01   4.000000E-01   4.000000E-01   4.000000E-01   4.000000E-01   4.000000E-01   4.000000E-01   4.000000E-01   4.000000E-01   4.000000E-01   4.000000E-01   4.000000E-01   4.000000E-01   4.000000E-01   4.000000E-01   4.000000E-01   4.000000E-01   4.000000E-01   4.000000E-01   4.000000E-01   4.000000E-01   4.000000E-01   4.000000E-01   4.000000E-01   4.000000E-01   4.000000E-01   4.000000E-01   4.000000E-01   4.000000E-01   4.000000E-01   4.000000E-01   4.000000E-01   4.000000E-01   4.000000E-01   4.000000E-01   4.000000E-01   4.000000E-01   4.000000E-01   4.000000E-01   4.000000E-01   4.000000E-01   4.000000E-01   4.000000E-01   4.000000E-01   4.000000E-01   4.000000E-01   4.000000E-01   4.000000E-01   4.000000E-01   4.000000E-01   4.000000E-01   4.000000E-01   4.000000E-01   4.000000E-01   4.000000E-01   4.000000E-01   4.000000E-01   4.000000E-01   4.000000E-01   4.000000E-01   4.000000E-01   4.000000E-01   4.000000E-01   4.000000E-01   4.000000E-01   4.000000E-01   4.000000E-01   4.000000E-01   4.000000E-01   4.000000E-01   4.000000E-01   4.000000E-01   4.000000E-01   4.000000E-01   4.000000E-01   4.000000E-01   4.000000E-01   4.000000E-01   4.000000E-01   4.000000E-01   4.000000E-01   4.000000E-01   4.000000E-01   4.000000E-01   4.000000E-01   4.000000E-01   4.000000E-01   4.000000E-01   4.000000E-01   4.000000E-01   4.000000E-01   4.000000E-01   4.000000E-01   4.000000E-01   4.000000E-01   4.000000E-01   4.000000E-01   4.000000E-01   4.000000E-01   4.000000E-01   4.000000E-01   4.000000E-01   4.000000E-01   4.000000E-01   4.000000E-01   4.000000E-01   4.000000E-01   4.000000E-01   4.000000E-01   4.000000E-01   4.000000E-01   4.000000E-01   4.000000E-01   4.000000E-01   4.000000E-01   4.000000E-01   4.000000E-01   4.000000E-01   4.000000E-01   4.000000E-01   4.000000E-01   4.000000E-01   4.000000E-01   4.000000E-01   4.000000E-01   4.000000E-01   4.000000E-01   4.000000E-01   4.000000E-01   4.000000E-01   4.000000E-01   4.000000E-01   4.000000E-01   4.000000E-01   4.000000E-01   4.000000E-01   4.000000E-01   4.000000E-01   4.000000E-01   4.000000E-01   4.000000E-01   4.000000E-01   4.000000E-01   4.000000E-01   4.000000E-01   4.000000E-01   4.000000E-01   4.000000E-01   4.000000E-01   4.000000E-01   4.000000E-01   4.000000E-01   4.000000E-01   4.000000E-01   4.000000E-01   4.000000E-01   4.000000E-01   4.000000E-01   4.000000E-01   4.000000E-01   4.000000E-01   4.000000E-01   4.000000E-01   4.000000E-01   4.000000E-01   4.000000E-01   4.000000E-01   4.000000E-01   4.000000E-01   4.000000E-01   4.000000E-01   4.000000E-01   4.000000E-01   4.000000E-01   4.000000E-01   4.000000E-01   4.000000E-01   4.000000E-01   4.000000E-01   4.000000E-01   4.000000E-01   4.000000E-01   4.000000E-01   4.000000E-01   4.000000E-01   4.000000E-01   4.000000E-01   4.000000E-01   4.000000E-01   4.000000E-01   4.000000E-01   4.000000E-01   4.000000E-01   4.000000E-01   4.000000E-01   4.000000E-01   4.000000E-01   4.000000E-01   4.000000E-01   4.000000E-01   4.000000E-01   4.000000E-01   4.000000E-01   4.000000E-01   4.000000E-01   4.000000E-01   4.000000E-01   4.000000E-01   4.000000E-01   4.000000E-01   4.000000E-01   4.000000E-01   4.000000E-01   4.000000E-01   4.000000E-01   4.000000E-01   4.000000E-01   4.000000E-01   4.000000E-01   4.000000E-01   4.000000E-01   4.000000E-01   4.000000E-01   4.000000E-01   4.000000E-01   4.000000E-01   4.000000E-01   4.000000E-01   4.000000E-01   4.000000E-01   4.000000E-01   4.000000E-01   4.000000E-01   4.000000E-01   4.000000E-01   4.000000E-01   4.000000E-01   4.000000E-01   4.000000E-01   4.000000E-01   4.000000E-01   4.000000E-01   4.000000E-01   4.000000E-01   4.000000E-01   4.000000E-01   4.000000E-01   4.000000E-01   4.000000E-01   4.000000E-01   4.000000E-01   4.000000E-01   4.000000E-01   4.000000E-01   4.000000E-01   4.000000E-01   4.000000E-01   4.000000E-01   4.000000E-01   4.000000E-01   4.000000E-01   4.000000E-01   4.000000E-01   4.000000E-01   4.000000E-01   4.000000E-01   4.000000E-01   4.000000E-01   4.000000E-01   4.000000E-01   4.000000E-01   4.000000E-01   4.000000E-01   4.000000E-01   4.000000E-01   4.000000E-01   4.000000E-01   4.000000E-01   4.000000E-01   4.000000E-01   4.000000E-01   4.000000E-01   4.000000E-01   4.000000E-01   4.000000E-01   4.000000E-01   4.000000E-01   4.000000E-01   4.000000E-01   4.000000E-01   4.000000E-01   4.000000E-01   4.000000E-01   4.000000E-01   4.000000E-01   4.000000E-01   4.000000E-01   4.000000E-01   4.000000E-01   4.000000E-01   4.000000E-01   4.000000E-01   4.000000E-01   4.000000E-01   4.000000E-01   4.000000E-01   4.000000E-01   4.000000E-01   4.000000E-01   4.000000E-01   4.000000E-01   4.000000E-01   4.000000E-01   4.000000E-01   4.000000E-01   4.000000E-01   4.000000E-01   4.000000E-01   4.000000E-01   4.000000E-01   4.000000E-01   4.000000E-01   4.000000E-01   4.000000E-01   4.000000E-01   4.000000E-01   4.000000E-01   4.000000E-01   4.000000E-01   4.000000E-01   4.000000E-01   4.000000E-01   4.000000E-01   4.000000E-01   4.000000E-01   4.000000E-01   4.000000E-01   4.000000E-01   4.000000E-01   4.000000E-01   4.000000E-01   4.000000E-01   4.000000E-01   4.000000E-01   4.000000E-01   4.000000E-01   4.000000E-01   4.000000E-01   4.000000E-01   4.000000E-01   4.000000E-01   4.000000E-01   4.000000E-01   4.000000E-01   4.000000E-01   4.000000E-01   4.000000E-01   4.000000E-01   4.000000E-01   4.000000E-01   4.000000E-01   