<?xml version="1.0"?>
<!-- Time =  3.0068362602810161E-01s -->
<VTKFile type="PolyData" version="0.1" byte_order="LittleEndian">
<PolyData>
<Piece NumberOfPoints="0000002400" NumberOfVerts="0" NumberOfLines="0" NumberOfStrips="0" NumberOfPolys="0">
<Points>
<DataArray type="Float32" Name="Position" NumberOfComponents="3" format="ascii">
  2.394896E-01   1.996485E-01   1.998149E-01   7.386191E-01   2.020014E-01   2.038691E-01   1.150323E+00   2.002711E-01   2.019282E-01   1.554772E+00   1.993460E-01   2.030506E-01   1.973661E+00   2.002783E-01   2.009354E-01   2.772799E+00   2.011671E-01   2.183185E-01   3.174682E+00   2.000888E-01   2.036172E-01   3.580271E+00   2.006458E-01   1.998912E-01   4.022975E+00   2.006914E-01   2.102045E-01   4.494933E+00   2.043940E-01   2.024346E-01   4.916367E+00   2.056099E-01   2.007675E-01   5.325017E+00   2.035626E-01   2.092728E-01   6.130179E+00   1.997586E-01   2.292543E-01   6.954678E+00   2.276758E-01   2.779067E-01   6.794494E+00   1.263215E+00   2.525801E-01   6.481052E+00   2.347027E+00   5.915772E-01   6.518695E+00   3.172087E+00   1.032947E+00   6.823525E+00   3.407482E+00   6.795306E-01   4.924279E+00   1.388665E+00   4.991689E-01   7.372408E+00   1.728119E+00   4.990257E-01   8.199352E+00   3.375531E+00   1.253554E+00   7.982672E+00   2.449374E-01   2.367996E-01   8.940178E+00   1.996381E-01   2.007636E-01   9.340111E+00   2.013476E-01   2.104577E-01   1.002981E+01   1.993166E-01   2.000794E-01   1.066580E+01   1.999059E-01   2.009849E-01   1.107038E+01   1.982308E-01   2.137579E-01   1.156028E+01   1.997406E-01   2.143047E-01   1.199924E+01   1.997515E-01   2.087465E-01   1.240807E+01   1.998360E-01   2.200643E-01   1.281892E+01   1.998095E-01   2.493133E-01   1.325166E+01   1.997825E-01   1.999794E-01   1.370466E+01   1.996107E-01   1.999664E-01   1.413431E+01   1.998673E-01   2.506379E-01   1.453096E+01   1.995657E-01   1.999168E-01   2.035602E-01   5.964700E-01   2.272170E-01   5.314406E-01   3.948422E-01   4.906412E-01   9.494697E-01   4.979765E-01   3.832823E-01   1.352057E+00   5.455307E-01   2.229997E-01   1.763632E+00   5.440977E-01   2.075377E-01   2.373345E+00   2.126063E-01   1.996827E-01   2.990042E+00   4.807340E-01   4.200645E-01   3.375849E+00   5.447042E-01   2.205964E-01   3.801008E+00   5.337784E-01   2.484513E-01   4.229392E+00   5.425893E-01   2.212058E-01   4.714178E+00   5.564269E-01   2.022396E-01   5.121225E+00   5.852929E-01   2.016852E-01   5.735188E+00   2.901278E-01   2.024079E-01   6.544208E+00   3.696348E-01   2.010159E-01   7.493676E+00   6.340536E-01   3.100348E-01   6.844348E+00   6.728214E-01   2.124900E-01   6.447004E+00   7.264236E-01   4.046973E-01   6.124255E+00   5.197159E+00   1.438573E+00   9.644238E+00   7.939047E-01   2.258804E-01   4.820542E+00   8.858204E-01   2.275716E+00   7.751365E+00   1.070665E+00   3.011718E-01   8.372388E+00   2.035838E-01   3.247125E-01   8.844449E+00   2.115925E-01   5.909436E-01   9.686556E+00   3.962066E-01   2.258649E-01   1.035581E+01   4.490758E-01   2.056391E-01   1.085944E+01   5.526657E-01   1.994526E-01   1.131338E+01   5.138555E-01   1.992446E-01   1.177942E+01   5.338063E-01   1.999951E-01   1.220389E+01   5.431721E-01   1.998794E-01   1.261600E+01   5.409072E-01   2.000100E-01   1.303251E+01   5.343333E-01   2.000348E-01   1.347839E+01   5.292494E-01   1.999680E-01   1.392216E+01   5.351156E-01   2.002228E-01   1.432995E+01   5.452308E-01   2.015425E-01   1.480009E+01   4.941342E-01   2.248267E-01   3.470329E-01   9.748139E-01   2.412899E-01   6.117965E-01   6.757161E-01   2.146390E-01   1.081182E+00   8.458245E-01   2.252630E-01   1.552893E+00   8.705155E-01   3.480856E-01   2.020073E+00   8.916611E-01   2.830959E-01   2.328816E+00   6.201452E-01   2.046224E-01   2.728951E+00   6.976473E-01   2.061371E-01   3.271989E+00   8.115935E-01   5.903807E-01   3.204054E+00   9.287613E-01   2.112661E-01   3.931405E+00   1.160091E+00   4.935641E-01   4.317326E+00   8.714676E-01   5.101456E-01   5.627927E+00   7.502635E-01   2.016014E-01   5.438825E+00   5.032238E-01   4.632185E-01   6.277787E+00   5.599618E-01   7.705864E-01   6.766620E+00   4.805461E-01   5.907744E-01   6.378610E+00   1.784010E+00   1.041101E+00   6.096863E+00   6.675684E-01   2.000063E-01   6.819600E+00   9.577402E-01   5.419168E-01   5.533094E+00   3.173417E+00   2.207754E+00   7.763066E+00   1.478743E+00   3.594887E-01   7.552869E+00   2.092629E+00   5.826509E-01   7.888195E+00   6.396680E-01   4.885712E-01   8.641806E+00   4.761136E-01   2.036919E-01   9.044343E+00   5.783117E-01   2.782994E-01   1.006178E+01   7.311789E-01   2.077740E-01   1.053368E+01   8.081347E-01   2.008431E-01   1.110774E+01   8.559114E-01   2.352160E-01   1.153081E+01   8.470211E-01   2.162661E-01   1.198372E+01   8.775386E-01   1.997245E-01   1.241178E+01   8.848043E-01   2.001495E-01   1.282966E+01   8.790313E-01   2.001449E-01   1.325931E+01   8.637946E-01   2.021301E-01   1.369587E+01   8.649033E-01   2.000925E-01   1.411750E+01   8.839852E-01   2.087364E-01   1.457281E+01   7.009788E-01   4.806823E-01   2.007197E-01   1.990345E-01   6.004637E-01   9.140975E-01   2.109860E-01   6.614341E-01   1.350378E+00   1.991109E-01   5.609785E-01   1.800676E+00   1.997216E-01   5.610929E-01   2.215039E+00   2.010903E-01   5.741037E-01   2.643441E+00   1.999445E-01   6.469300E-01   3.185125E+00   2.004398E-01   6.283651E-01   3.900569E+00   2.002484E-01   5.909726E-01   4.303813E+00   2.006253E-01   5.546728E-01   4.741560E+00   1.990038E-01   5.715188E-01   5.176433E+00   2.031323E-01   5.974185E-01   6.076590E+00   1.996026E-01   7.990482E-01   6.436266E+00   2.045641E-01   5.931830E-01   7.228369E+00   1.220068E+00   6.235366E-01   8.308379E+00   6.295594E+00   1.507989E+00   7.379313E+00   1.048340E+01   1.669136E+00   6.177558E+00   9.283692E-01   1.385566E+00   6.549880E+00   1.939337E+01   1.080867E+00   7.737294E+00   2.002747E+01   1.633732E+00   6.764988E+00   1.443736E+01   2.509306E+00   7.703719E+00   1.073426E+01   1.367439E+00   7.295318E+00   2.898953E+00   1.240601E+00   8.049022E+00   2.086674E-01   8.153706E-01   9.330857E+00   2.054245E-01   6.124594E-01   9.770819E+00   1.995189E-01   6.989508E-01   1.019583E+01   1.995702E-01   7.962028E-01   1.085297E+01   1.980797E-01   5.541534E-01   1.131962E+01   1.999003E-01   5.766022E-01   1.176352E+01   1.996448E-01   5.587844E-01   1.217420E+01   1.996723E-01   6.795817E-01   1.259525E+01   1.997064E-01   7.387921E-01   1.303352E+01   1.998309E-01   7.330819E-01   1.343167E+01   1.996962E-01   7.713951E-01   1.399355E+01   1.994142E-01   6.487548E-01   1.446720E+01   1.997440E-01   7.199109E-01   2.726641E-01   6.845731E-01   6.138526E-01   6.625195E-01   4.882706E-01   8.607134E-01   1.122585E+00   5.347637E-01   7.897652E-01   1.574603E+00   5.295565E-01   5.613401E-01   2.030419E+00   5.543008E-01   5.450105E-01   2.527986E+00   5.723965E-01   5.477337E-01   2.920127E+00   4.358709E-01   8.137547E-01   3.536994E+00   3.770578E-01   5.581791E-01   4.048746E+00   5.738894E-01   5.871309E-01   4.541165E+00   5.468205E-01   5.878145E-01   4.931511E+00   3.230816E-01   9.027918E-01   5.678510E+00   2.098520E-01   6.962247E-01   6.431884E+00   2.013798E-01   9.986607E-01   7.018352E+00   2.994541E-01   8.474603E-01   7.994513E+00   3.208206E+00   9.407185E-01   6.104181E+00   7.862947E+00   2.247477E+00   2.677496E+00   1.066497E+00   8.593844E-01   3.693119E+00   9.457496E-01   2.002961E-01   9.825523E+00   1.077780E+01   1.517885E+00   9.011267E+00   1.433970E+00   8.628408E-01   8.823821E+00   7.469803E+00   1.701537E+00   7.492775E+00   7.927259E-01   7.246065E-01   8.452866E+00   2.066944E-01   7.257404E-01   9.358211E+00   5.995955E-01   5.333681E-01   1.003375E+01   4.419091E-01   5.184244E-01   1.048818E+01   3.619735E-01   5.744957E-01   1.108591E+01   5.208607E-01   5.284461E-01   1.154049E+01   5.298901E-01   5.270965E-01   1.199232E+01   5.269369E-01   5.388755E-01   1.240848E+01   4.919244E-01   5.396459E-01   1.281178E+01   4.723037E-01   5.419612E-01   1.325469E+01   4.594219E-01   5.240717E-01   1.367486E+01   4.133512E-01   5.366523E-01   1.424300E+01   5.066102E-01   5.950229E-01   1.480000E+01   2.005137E-01   4.978748E-01   3.571988E-01   1.089960E+00   7.246043E-01   8.443980E-01   7.883647E-01   6.535289E-01   1.250622E+00   9.169922E-01   7.277054E-01   1.814653E+00   8.804839E-01   6.751770E-01   2.192832E+00   7.782766E-01   8.356764E-01   2.440929E+00   9.525034E-01   4.569642E-01   2.868894E+00   7.959402E-01   6.314725E-01   3.314679E+00   5.270230E-01   8.704768E-01   3.678727E+00   7.502338E-01   6.058443E-01   4.458774E+00   8.025969E-01   8.922679E-01   4.964870E+00   5.842620E-01   5.878294E-01   5.412788E+00   4.606059E-01   8.721445E-01   5.959657E+00   4.377774E-01   4.996625E-01   6.650722E+00   5.596924E-01   1.005116E+00   6.702662E+00   1.539435E+00   9.415653E-01   4.867309E+00   8.525421E-01   9.240819E-01   2.402805E+00   8.581558E-01   1.508142E+00   4.477045E+00   1.255778E+00   4.724763E-01   9.350676E+00   9.999213E-01   4.314690E-01   8.286105E+00   5.250952E-01   9.024038E-01   8.179838E+00   7.396798E+00   9.601942E-01   1.017169E+01   4.121458E+00   1.406543E+00   7.853346E+00   8.264899E-01   1.007782E+00   8.856913E+00   5.830392E-01   7.811124E-01   9.741580E+00   6.948905E-01   6.222649E-01   1.031020E+01   7.293596E-01   5.461871E-01   1.070932E+01   6.943547E-01   5.418635E-01   1.130542E+01   8.473618E-01   5.970851E-01   1.176873E+01   8.585051E-01   5.370808E-01   1.219694E+01   8.705643E-01   5.378217E-01   1.262681E+01   8.269467E-01   5.408834E-01   1.304286E+01   7.985666E-01   5.327260E-01   1.350150E+01   7.738714E-01   5.506776E-01   1.391328E+01   7.320475E-01   5.748312E-01   1.479522E+01   5.435361E-01   7.759846E-01   2.087563E-01   1.994022E-01   1.000517E+00   8.511191E-01   2.071348E-01   1.073722E+00   1.263739E+00   1.986368E-01   9.591886E-01   2.031751E+00   1.995903E-01   9.495592E-01   2.659134E+00   1.994854E-01  
[...]
<PointData Scalars="Diameter" Vectors="Velocity">
<DataArray type="Float32" Name="Diameter" format="ascii">
  4.000000E-01   4.000000E-01   4.000000E-01   4.000000E-01   4.000000E-01   4.000000E-01   4.000000E-01   4.000000E-01   4.000000E-01   4.000000E-01   4.000000E-01   4.000000E-01   4.000000E-01   4.000000E-01   4.000000E-01   4.000000E-01   4.000000E-01   4.000000E-01   4.000000E-01   4.000000E-01   4.000000E-01   4.000000E-01   4.000000E-01   4.000000E-01   4.000000E-01   4.000000E-01   4.000000E-01   4.000000E-01   4.000000E-01   4.000000E-01   4.000000E-01   4.000000E-01   4.000000E-01   4.000000E-01   4.000000E-01   4.000000E-01   4.000000E-01   4.000000E-01   4.000000E-01   4.000000E-01   4.000000E-01   4.000000E-01   4.000000E-01   4.000000E-01   4.000000E-01   4.000000E-01   4.000000E-01   4.000000E-01   4.000000E-01   4.000000E-01   4.000000E-01   4.000000E-01   4.000000E-01   4.000000E-01   4.000000E-01   4.000000E-01   4.000000E-01   4.000000E-01   4.000000E-01   4.000000E-01   4.000000E-01   4.000000E-01   4.000000E-01   4.000000E-01   4.000000E-01   4.000000E-01   4.000000E-01   4.000000E-01   4.000000E-01   4.000000E-01   4.000000E-01   4.000000E-01   4.000000E-01   4.000000E-01   4.000000E-01   4.000000E-01   4.000000E-01   4.000000E-01   4.000000E-01   4.000000E-01   4.000000E-01   4.000000E-01   4.000000E-01   4.000000E-01   4.000000E-01   4.000000E-01   4.000000E-01   4.000000E-01   4.000000E-01   4.000000E-01   4.000000E-01   4.000000E-01   4.000000E-01   4.000000E-01   4.000000E-01   4.000000E-01   4.000000E-01   4.000000E-01   4.000000E-01   4.000000E-01   4.000000E-01   4.000000E-01   4.000000E-01   4.000000E-01   4.000000E-01   4.000000E-01   4.000000E-01   4.000000E-01   4.000000E-01   4.000000E-01   4.000000E-01   4.000000E-01   4.000000E-01   4.000000E-01   4.000000E-01   4.000000E-01   4.000000E-01   4.000000E-01   4.000000E-01   4.000000E-01   4.000000E-01   4.000000E-01   4.000000E-01   4.000000E-01   4.000000E-01   4.000000E-01   4.000000E-01   4.000000E-01   4.000000E-01   4.000000E-01   4.000000E-01   4.000000E-01   4.000000E-01   4.000000E-01   4.000000E-01   4.000000E-01   4.000000E-01   4.000000E-01   4.000000E-01   4.000000E-01   4.000000E-01   4.000000E-01   4.000000E-01   4.000000E-01   4.000000E-01   4.000000E-01   4.000000E-01   4.000000E-01   4.000000E-01   4.000000E-01   4.000000E-01   4.000000E-01   4.000000E-01   4.000000E-01   4.000000E-01   4.000000E-01   4.000000E-01   4.000000E-01   4.000000E-01   4.000000E-01   4.000000E-01   4.000000E-01   4.000000E-01   4.000000E-01   4.000000E-01   4.000000E-01   4.000000E-01   4.000000E-01   4.000000E-01   4.000000E-01   4.000000E-01   4.000000E-01   4.000000E-01   4.000000E-01   4.000000E-01   4.000000E-01   4.000000E-01   4.000000E-01   4.000000E-01   4.000000E-01   4.000000E-01   4.000000E-01   4.000000E-01   4.000000E-01   4.000000E-01   4.000000E-01   4.000000E-01   4.000000E-01   4.000000E-01   4.000000E-01   4.000000E-01   4.000000E-01   4.000000E-01   4.000000E-01   4.000000E-01   4.000000E-01   4.000000E-01   4.000000E-01   4.000000E-01   4.000000E-01   4.000000E-01   4.000000E-01   4.000000E-01   4.000000E-01   4.000000E-01   4.000000E-01   4.000000E-01   4.000000E-01   4.000000E-01   4.000000E-01   4.000000E-01   4.000000E-01   4.000000E-01   4.000000E-01   4.000000E-01   4.000000E-01   4.000000E-01   4.000000E-01   4.000000E-01   4.000000E-01   4.000000E-01   4.000000E-01   4.000000E-01   4.000000E-01   4.000000E-01   4.000000E-01   4.000000E-01   4.000000E-01   4.000000E-01   4.000000E-01   4.000000E-01   4.000000E-01   4.000000E-01   4.000000E-01   4.000000E-01   4.000000E-01   4.000000E-01   4.000000E-01   4.000000E-01   4.000000E-01   4.000000E-01   4.000000E-01   4.000000E-01   4.000000E-01   4.000000E-01   4.000000E-01   4.000000E-01   4.000000E-01   4.000000E-01   4.000000E-01   4.000000E-01   4.000000E-01   4.000000E-01   4.000000E-01   4.000000E-01   4.000000E-01   4.000000E-01   4.000000E-01   4.000000E-01   4.000000E-01   4.000000E-01   4.000000E-01   4.000000E-01   4.000000E-01   4.000000E-01   4.000000E-01   4.000000E-01   4.000000E-01   4.000000E-01   4.000000E-01   4.000000E-01   4.000000E-01   4.000000E-01   4.000000E-01   4.000000E-01   4.000000E-01   4.000000E-01   4.000000E-01   4.000000E-01   4.000000E-01   4.000000E-01   4.000000E-01   4.000000E-01   4.000000E-01   4.000000E-01   4.000000E-01   4.000000E-01   4.000000E-01   4.000000E-01   4.000000E-01   4.000000E-01   4.000000E-01   4.000000E-01   4.000000E-01   4.000000E-01   4.000000E-01   4.000000E-01   4.000000E-01   4.000000E-01   4.000000E-01   4.000000E-01   4.000000E-01   4.000000E-01   4.000000E-01   4.000000E-01   4.000000E-01   4.000000E-01   4.000000E-01   4.000000E-01   4.000000E-01   4.000000E-01   4.000000E-01   4.000000E-01   4.000000E-01   4.000000E-01   4.000000E-01   4.000000E-01   4.000000E-01   4.000000E-01   4.000000E-01   4.000000E-01   4.000000E-01   4.000000E-01   4.000000E-01   4.000000E-01   4.000000E-01   4.000000E-01   4.000000E-01   4.000000E-01   4.000000E-01   4.000000E-01   4.000000E-01   4.000000E-01   4.000000E-01   4.000000E-01   4.000000E-01   4.000000E-01   4.000000E-01   4.000000E-01   4.000000E-01   4.000000E-01   4.000000E-01   4.000000E-01   4.000000E-01   4.000000E-01   4.000000E-01   4.000000E-01   4.000000E-01   4.000000E-01   4.000000E-01   4.000000E-01   4.000000E-01   4.000000E-01   4.000000E-01   4.000000E-01   4.000000E-01   4.000000E-01   4.000000E-01   4.000000E-01   4.000000E-01   4.000000E-01   4.000000E-01   4.000000E-01   4.000000E-01   4.000000E-01   4.000000E-01   4.000000E-01   4.000000E-01   4.000000E-01   4.000000E-01   4.000000E-01   4.000000E-01   4.000000E-01   4.000000E-01   4.000000E-01   4.000000E-01   4.000000E-01   4.000000E-01   4.000000E-01   4.000000E-01   4.000000E-01   4.000000E-01   4.000000E-01   4.000000E-01   4.000000E-01   4.000000E-01   4.000000E-01   4.000000E-01   4.000000E-01   4.000000E-01   4.000000E-01   4.000000E-01   4.000000E-01   4.000000E-01   4.000000E-01   4.000000E-01   4.000000E-01   4.000000E-01   4.000000E-01   4.000000E-01   4.000000E-01   4.000000E-01   4.000000E-01   4.000000E-01   4.000000E-01   4.000000E-01   4.000000E-01   4.000000E-01   4.000000E-01   4.000000E-01   4.000000E-01   4.000000E-01   4.000000E-01   4.000000E-01   4.000000E-01   4.000000E-01   4.000000E-01   4.000000E-01   4.000000E-01   4.000000E-01   4.000000E-01   4.000000E-01   4.000000E-01   4.000000E-01   4.000000E-01   4.000000E-01   4.000000E-01   4.000000E-01   4.000000E-01   4.000000E-01   4.000000E-01   4.000000E-01   4.000000E-01   4.000000E-01   4.000000E-01   4.000000E-01   4.000000E-01   4.000000E-01   4.000000E-01   4.000000E-01   4.000000E-01   4.000000E-01   4.000000E-01   4.000000E-01   4.000000E-01   4.000000E-01   4.000000E-01   4.000000E-01   4.000000E-01   4.000000E-01   4.000000E-01   4.000000E-01   4.000000E-01   4.000000E-01   4.000000E-01   4.000000E-01   4.000000E-01   4.000000E-01   4.000000E-01   4.000000E-01   4.000000E-01   4.000000E-01   4.000000E-01   4.000000E-01   4.000000E-01   4.000000E-01   4.000000E-01   4.000000E-01   4.000000E-01   4.000000E-01   4.000000E-01   4.000000E-01   4.000000E-01   4.000000E-01   4.000000E-01   4.000000E-01   4.000000E-01   4.000000E-01   4.000000E-01   4.000000E-01   4.000000E-01   4.000000E-01   4.000000E-01   4.000000E-01   4.000000E-01   4.000000E-01   4.000000E-01   4.000000E-01   4.000000E-01   4.000000E-01   4.000000E-01   4.000000E-01   4.000000E-01   4.000000E-01   4.000000E-01   4.000000E-01   4.000000E-01   4.000000E-01   4.000000E-01   4.000000E-01   4.000000E-01   4.000000E-01   4.000000E-01   4.000000E-01   4.000000E-01   4.000000E-01   4.000000E-01   4.000000E-01   4.000000E-01   4.000000E-01   4.000000E-01   4.000000E-01   4.000000E-01   4.000000E-01   4.000000E-01   4.000000E-01   4.000000E-01   4.000000E-01   4.000000E-01   4.000000E-01   4.000000E-01   4.000000E-01   4.000000E-01   4.000000E-01   4.000000E-01   4.000000E-01   4.000000E-01   4.000000E-01   4.000000E-01   4.000000E-01   4.000000E-01   4.000000E-01   4.000000E-01   4.000000E-01   4.000000E-01   4.000000E-01   4.000000E-01   4.000000E-01   4.000000E-01   4.000000E-01   4.000000E-01   4.000000E-01   4.000000E-01   4.000000E-01   4.000000E-01   4.000000E-01   4.000000E-01   4.000000E-01   4.000000E-01   4.000000E-01   4.000000E-01   4.000000E-01   4.000000E-01   4.000000E-01   4.000000E-01   4.000000E-01   4.000000E-01   4.000000E-01   4.000000E-01   4.000000E-01   4.000000E-01   4.000000E-01   4.000000E-01   4.000000E-01   4.000000E-01   4.000000E-01   4.000000E-01   4.000000E-01   4.000000E-01   4.000000E-01   4.000000E-01   4.000000E-01   4.000000E-01   4.000000E-01   4.000000E-01   4.000000E-01   4.000000E-01   4.000000E-01   4.000000E-01   4.000000E-01   4.000000E-01   4.000000E-01   4.000000E-01   4.000000E-01   4.000000E-01   4.000000E-01   4.000000E-01   4.000000E-01   4.000000E-01   4.000000E-01   4.000000E-01   4.000000E-01   4.000000E-01   4.000000E-01   4.000000E-01   4.000000E-01   4.000000E-01   4.000000E-01   4.000000E-01   4.000000E-01   4.000000E-01   4.000000E-01   4.000000E-01   4.000000E-01   4.000000E-01   4.000000E-01   4.000000E-01   4.000000E-01   4.000000E-01   4.000000E-01   4.000000E-01   4.000000E-01   4.000000E-01   4.000000E-01   4.000000E-01   4.000000E-01   4.000000E-01   4.000000E-01   4.000000E-01   4.000000E-01   4.000000E-01   4.000000E-01   4.000000E-01   4.000000E-01   4.000000E-01   4.000000E-01   4.000000E-01   4.000000E-01   4.000000E-01   4.000000E-01   4.000000E-01   4.000000E-01   4.000000E-01   4.000000E-01   4.000000E-01   4.000000E-01   4.000000E-01   4.000000E-01   4.000000E-01   4.000000E-01   4.000000E-01   4.000000E-01   4.000000E-01   4.000000E-01   4.000000E-01   4.000000E-01   4.000000E-01   4.000000E-01   4.000000E-01   4.000000E-01   4.000000E-01   4.000000E-01   4.000000E-01   4.000000E-01   4.000000E-01   4.000000E-01   4.000000E-01   4.000000E-01   4.000000E-01   4.000000E-01   4.000000E-01   4.000000E-01   4.000000E-01   4.000000E-01   4.000000E-01   4.000000E-01   4.000000E-01   4.000000E-01   4.000000E-01   4.000000E-01   4.000000E-01   4.000000E-01   4.000000E-01   4.000000E-01   4.000000E-01   4.000000E-01   4.000000E-01   4.000000E-01   4.000000E-01   4.000000E-01   4.000000E-01   4.000000E-01   4.000000E-01   4.000000E-01   4.000000E-01   4.000000E-01   4.000000E-01   4.000000E-01   4.000000E-01   4.000000E-01   4.000000E-01   4.000000E-01   4.000000E-01   4.000000E-01   4.000000E-01   4.000000E-01   4.000000E-01   4.000000E-01   4.000000E-01   4.000000E-01   4.000000E-01   4.000000E-01   4.000000E-01   4.000000E-01   4.000000E-01   4.000000E-01   4.000000E-01   4.000000E-01   4.000000E-01   4.000000E-01   4.000000E-01   4.000000E-01   4.000000E-01   4.000000E-01   4.000000E-01   4.000000E-01   4.000000E-01   4.000000E-01   4.000000E-01   4.000000E-01   4.000000E-01   4.000000E-01   4.000000E-01   4.000000E-01   4.000000E-01   4.000000E-01   4.000000E-01   4.000000E-01   4.000000E-01   4.000000E-01   4.000000E-01   4.000000E-01   4.000000E-01   4.000000E-01   4.000000E-01   4.000000E-01   4.000000E-01   4.000000E-01   4.000000E-01   4.000000E-01   4.000000E-01   4.000000E-01   4.000000E-01   4.000000E-01   4.000000E-01   4.000000E-01   4.000000E-01   4.000000E-01   4.000000E-01   4.000000E-01   4.000000E-01   4.000000E-01   4.000000E-01   4.000000E-01   4.000000E-01   4.000000E-01   4.000000E-01   4.000000E-01   4.000000E-01   4.000000E-01   4.000000E-01   4.000000E-01   4.000000E-01   4.000000E-01   4.000000E-01   4.000000E-01   4.000000E-01   4.000000E-01   4.000000E-01   4.000000E-01   4.000000E-01   4.000000E-01   4.000000E-01   4.000000E-01   4.000000E-01   4.000000E-01   4.000000E-01   4.000000E-01   4.000000E-01   4.000000E-01   4.000000E-01   4.000000E-01   4.000000E-01   4.000000E-01   4.000000E-01   4.000000E-01   4.000000E-01   4.000000E-01   4.000000E-01   4.000000E-01   4.000000E-01   4.000000E-01   4.000000E-01   4.000000E-01   4.000000E-01   4.000000E-01   4.000000E-01   4.000000E-01   4.000000E-01   4.000000E-01   4.000000E-01   4.000000E-01   4.000000E-01   4.000000E-01   4.000000E-01   4.000000E-01   4.000000E-01   4.000000E-01   4.000000E-01   4.000000E-01   4.000000E-01   4.000000E-01   4.000000E-01   4.000000E-01   4.000000E-01   4.000000E-01   4.000000E-01   4.000000E-01   4.000000E-01   4.000000E-01   4.000000E-01   4.000000E-01   4.000000E-01   4.000000E-01   4.000000E-01   4.000000E-01   4.000000E-01   4.000000E-01   4.000000E-01   4.000000E-01   4.000000E-01   4.000000E-01   4.000000E-01   4.000000E-01   4.000000E-01   4.000000E-01   4.000000E-01   4.000000E-01   4.000000E-01   4.000000E-01   4.000000E-01   4.000000E-01   4.000000E-01   4.000000E-01   4.000000E-01   4.000000E-01   4.000000E-01   4.000000E-01   4.000000E-01   4.000000E-01   4.000000E-01   4.000000E-01   4.000000E-01   4.000000E-01   4.000000E-01   4.000000E-01   4.000000E-01   4.000000E-01   4.000000E-01   4.000000E-01   4.000000E-01   4.000000E-01   4.000000E-01   4.000000E-01   4.000000E-01   4.000000E-01   4.000000E-01   4.000000E-01   4.000000E-01   4.000000E-01   4.000000E-01   4.000000E-01   4.000000E-01   4.000000E-01   4.000000E-01   4.000000E-01   4.000000E-01   4.000000E-01   4.000000E-01   4.000000E-01   4.000000E-01   4.000000E-01   4.000000E-01   4.000000E-01   4.000000E-01   4.000000E-01   4.000000E-01   4.000000E-01   4.000000E-01   4.000000E-01   4.000000E-01   4.000000E-01   4.000000E-01   4.000000E-01   4.000000E-01   4.000000E-01   4.000000E-01   4.000000E-01   4.000000E-01   4.000000E-01   4.000000E-01   4.000000E-01   4.000000E-01   4.000000E-01   4.000000E-01   4.000000E-01   4.000000E-01   4.000000E-01   4.000000E-01   4.000000E-01   4.000000E-01   4.000000E-01   4.000000E-01   4.000000E-01   4.000000E-01   4.000000E-01   4.000000E-01   4.000000E-01   4.000000E-01   4.000000E-01   4.000000E-01   4.000000E-01   4.000000E-01   4.000000E-01   4.000000E-01   4.000000E-01   4.000000E-01   4.000000E-01   4.000000E-01   4.000000E-01   4.000000E-01   4.000000E-01   4.000000E-01   4.000000E-01   4.000000E-01   4.000000E-01   4.000000E-01   4.000000E-01   4.000000E-01   4.000000E-01   4.000000E-01   4.000000E-01   4.000000E-01   4.000000E-01   4.000000E-01   4.000000E-01   4.000000E-01   4.000000E-01   4.000000E-01   4.000000E-01   4.000000E-01   4.000000E-01   4.000000E-01   4.000000E-01   4.000000E-01   4.000000E-01   4.000000E-01   4.000000E-01   4.000000E-01   4.000000E-01   4.000000E-01   4.000000E-01   4.000000E-01   4.000000E-01   4.000000E-01   4.000000E-01   4.000000E-01   4.000000E-01   4.000000E-01   4.000000E-01   4.000000E-01   4.000000E-01   4.000000E-01   4.000000E-01   4.000000E-01   4.000000E-01   4.000000E-01   4.000000E-01   4.000000E-01   4.000000E-01   4.000000E-01   4.000000E-01   4.000000E-01   4.000000E-01   4.000000E-01   4.000000E-01   4.000000E-01   4.000000E-01   4.000000E-01   4.000000E-01   4.000000E-01   4.000000E-01   4.000000E-01   4.000000E-01   4.000000E-01   4.000000E-01   4.000000E-01   4.000000E-01   4.000000E-01   4.000000E-01   4.000000E-01   4.000000E-01   4.000000E-01   4.000000E-01   4.000000E-01   4.000000E-01   4.000000E-01   4.000000E-01   4.000000E-01   4.000000E-01   4.000000E-01   4.000000E-01   4.000000E-01   4.000000E-01   4.000000E-01   4.000000E-01   4.000000E-01   4.000000E-01   4.000000E-01   4.000000E-01   4.000000E-01   4.000000E-01   4.000000E-01   4.000000E-01   4.000000E-01   4.000000E-01   4.000000E-01   4.000000E-01   4.000000E-01   4.000000E-01   4.000000E-01   4.000000E-01   4.000000E-01   4.000000E-01   4.000000E-01   4.000000E-01   4.000000E-01   4.000000E-01   4.000000E-01   4.000000E-01   4.000000E-01   4.000000E-01   4.000000E-01   4.000000E-01   4.000000E-01   4.000000E-01   4.000000E-01   4.000000E-01   4.000000E-01   4.000000E-01   4.000000E-01   4.000000E-01   4.000000E-01   4.000000E-01   4.000000E-01   4.000000E-01   4.000000E-01   4.000000E-01   4.000000E-01   4.000000E-01   4.000000E-01   4.000000E-01   4.000000E-01   4.000000E-01   4.000000E-01   4.000000E-01   4.000000E-01   4.000000E-01   4.000000E-01   4.000000E-01   4.000000E-01   4.000000E-01   4.000000E-01   4.000000E-01   4.000000E-01   4.000000E-01   4.000000E-01   4.000000E-01   4.000000E-01   4.000000E-01   4.000000E-01   4.000000E-01   4.000000E-01   4.000000E-01   4.000000E-01   4.000000E-01   4.000000E-01   4.000000E-01   4.000000E-01   4.000000E-01   4.000000E-01   4.000000E-01   4.000000E-01   4.000000E-01   4.000000E-01   4.000000E-01   4.000000E-01   4.000000E-01   4.000000E-01   4.000000E-01   4.000000E-01   4.000000E-01   4.000000E-01   4.000000E-01   4.000000E-01   4.000000E-01   4.000000E-01   4.000000E-01   4.000000E-01   4.000000E-01   4.000000E-01   4.000000E-01   4.000000E-01   4.000000E-01   4.000000E-01   4.000000E-01   4.000000E-01   4.000000E-01   4.000000E-01   4.000000E-01   4.000000E-01   4.000000E-01   4.000000E-01   4.000000E-01   4.000000E-01   4.000000E-01   4.000000E-01   4.000000E-01   4.000000E-01   4.000000E-01   4.000000E-01   4.000000E-01   4.000000E-01   4.000000E-01   4.000000E-01   4.000000E-01   4.000000E-01   4.000000E-01   4.000000E-01   4.000000E-01   4.000000E-01   4.000000E-01   4.000000E-01   4.000000E-01   4.000000E-01   4.000000E-01   4.000000E-01   4.000000E-01   4.000000E-01   4.000000E-01   4.000000E-01   4.000000E-01   4.000000E-01   4.000000E-01   4.000000E-01   4.000000E-01   4.000000E-01   4.000000E-01   4.000000E-01   4.000000E-01   4.000000E-01   4.000000E-01   4.000000E-01   4.000000E-01   4.000000E-01   4.000000E-01   4.000000E-01   4.000000E-01   4.000000E-01   4.000000E-01   4.000000E-01   4.000000E-01   4.000000E-01   4.000000E-01   4.000000E-01   4.000000E-01   4.000000E-01   4.000000E-01   4.000000E-01   4.000000E-01   4.000000E-01   4.000000E-01   4.000000E-01   4.000000E-01   4.000000E-01   4.000000E-01   4.000000E-01   4.000000E-01   4.000000E-01   4.000000E-01   4.000000E-01   4.000000E-01   4.000000E-01   4.000000E-01   4.000000E-01   4.000000E-01   4.000000E-01   4.000000E-01   4.000000E-01   4.000000E-01   4.000000E-01   4.000000E-01   4.000000E-01   4.000000E-01   4.000000E-01   4.000000E-01   4.000000E-01   4.000000E-01   4.000000E-01   4.000000E-01   4.000000E-01   4.000000E-01   4.000000E-01   4.000000E-01   4.000000E-01   4.000000E-01   4.000000E-01   4.000000E-01   4.000000E-01   4.000000E-01   4.000000E-01   4.000000E-01   4.000000E-01   4.000000E-01   4.000000E-01   4.000000E-01   4.000000E-01   4.000000E-01   4.000000E-01   4.000000E-01   4.000000E-01   4.000000E-01   4.000000E-01   4.000000E-01   4.000000E-01   4.000000E-01   4.000000E-01   4.000000E-01   4.000000E-01   4.000000E-01   4.000000E-01   4.000000E-01   4.000000E-01   4.000000E-01   4.000000E-01   4.000000E-01   4.000000E-01   4.000000E-01   4.000000E-01   4.000000E-01   4.000000E-01   4.000000E-01   4.000000E-01   4.000000E-01   4.000000E-01   4.000000E-01   4.000000E-01   4.000000E-01   4.000000E-01   4.000000E-01   4.000000E-01   4.000000E-01   4.000000E-01   4.000000E-01   4.000000E-01   4.000000E-01   4.000000E-01   4.000000E-01   4.000000E-01   4.000000E-01   4.000000E-01   4.000000E-01   4.000000E-01   4.000000E-01   4.000000E-01   4.000000E-01   4.000000E-01   4.000000E-01   4.000000E-01   4.000000E-01   4.000000E-01   4.000000E-01   4.000000E-01   4.000000E-01   4.000000E-01   4.000000E-01   4.000000E-01   4.000000E-01   4.000000E-01   4.000000E-01   4.000000E-01   4.000000E-01   4.000000E-01   4.000000E-01   4.000000E-01   4.000000E-01   4.000000E-01   4.000000E-01   4.000000E-01   4.000000E-01   4.000000E-01   4.000000E-01   4.000000E-01   4.000000E-01   4.000000E-01   4.000000E-01   4.000000E-01   4.000000E-01   4.000000E-01   4.000000E-01   4.000000E-01   4.000000E-01   4.000000E-01   4.000000E-01   4.000000E-01   4.000000E-01   4.000000E-01   4.000000E-01   4.000000E-01   4.000000E-01   4.000000E-01   4.000000E-01   4.000000E-01   4.000000E-01   4.000000E-01   4.000000E-01   