<?xml version="1.0"?>
<!-- Time =  2.1001176260279881E+00s -->
<VTKFile type="PolyData" version="0.1" byte_order="LittleEndian">
<PolyData>
<Piece NumberOfPoints="0000002400" NumberOfVerts="0" NumberOfLines="0" NumberOfStrips="0" NumberOfPolys="0">
<Points>
<DataArray type="Float32" Name="Position" NumberOfComponents="3" format="ascii">
  9.278280E-01   2.158725E-01   2.125130E-01   4.969484E+00   8.174023E-01   4.865880E-01   8.243554E+00   6.144268E+00   8.169537E-01   4.039983E+00   1.010140E+00   3.276865E+00   2.653776E+00   2.074740E-01   3.283006E+00   1.364673E+01   1.109240E+01   2.336834E+00   4.987113E+00   1.431461E+01   3.421325E+00   3.313537E+00   9.139377E+00   4.675668E+00   1.465489E+01   1.352830E+01   1.080027E+00   1.390901E+01   8.340972E+00   1.469864E+00   4.267364E+00   2.349438E-01   3.233092E+00   1.455171E+01   7.212349E-01   1.697532E+00   8.049105E+00   7.922450E-01   1.359797E+00   4.086576E+00   7.835504E-01   1.884595E+00   4.067701E+00   1.193297E+01   1.175516E+00   1.596900E+00   6.343074E-01   3.077530E+00   6.716912E+00   4.775615E+00   9.062337E-01   4.250665E+00   2.063791E-01   2.163717E-01   6.042413E+00   1.149821E+01   4.405598E+00   5.462995E+00   1.499618E+01   3.790218E+00   7.450123E+00   1.627240E+00   1.761422E+00   1.252886E+01   1.441934E+00   1.758533E+00   5.719552E+00   1.410149E+01   4.471130E+00   4.795305E+00   1.390908E+01   3.571972E+00   7.091042E+00   3.971601E-01   4.078993E+00   7.271668E+00   2.265783E+01   4.133450E+00   5.606697E+00   5.200956E+00   2.675936E+00   1.376026E+01   5.300583E-01   4.708316E-01   2.272412E+00   6.465339E+00   3.522917E+00   7.398796E+00   4.224513E-01   3.774672E-01   1.510109E+00   2.384515E-01   1.355362E+00   1.722326E+00   6.342620E-01   1.810683E+00   1.195847E+01   2.829307E+00   1.709615E+00   6.703044E+00   2.682563E+00   2.289516E-01   1.824248E-01   5.328854E+00   4.878294E+00   9.572647E+00   1.851415E+01   4.659266E+00   1.017375E+01   2.669250E+00   3.246647E+00   9.850830E-01   1.267201E+00   3.834098E+00   3.680123E+00   7.780406E-01   2.234629E-01   4.089656E+00   2.063387E-01   4.211303E+00   1.406067E+01   1.787934E+01   7.358223E-01   6.319196E+00   7.376572E-01   5.263976E-01   1.970301E+00   1.028853E+01   1.884898E+00   5.733072E+00   1.006995E+00   3.372619E+00   2.447677E+00   1.252639E+00   8.972301E-01   6.162682E+00   9.951805E+00   4.054236E+00   4.300270E+00   1.505049E+01   3.404359E+00   3.383929E+00   1.982901E-01   9.678665E-01   4.672390E+00   1.260492E+01   2.379570E+00   6.596478E+00   1.562607E+01   2.842228E+00   6.226756E+00   6.726210E+00   2.582701E+00   1.293136E+00   9.701268E-01   1.170949E+00   4.580206E+00   1.561909E+00   4.914288E+00   3.971191E+00   5.343003E+00   4.204488E+00   1.446538E+01   2.878467E-01   1.692270E+00   8.279643E+00   1.716068E+01   9.703441E-01   1.473035E+01   6.086617E+00   2.025611E+00   5.750425E+00   1.988971E-01   9.727274E-01   5.784056E+00   6.766553E-01   1.437954E+00   6.903633E+00   1.778539E+00   3.410265E+00   5.355207E+00   3.869881E+00   1.927688E+00   6.596263E+00   2.153286E-01   2.067653E-01   6.954604E+00   1.128207E+00   2.635051E-01   7.727767E+00   4.814800E+00   4.529593E+00   1.078013E+01   3.038920E-01   1.448280E+00   5.025363E+00   4.962029E-01   2.392058E+00   9.510002E+00   1.982862E-01   2.678521E+00   7.193054E+00   4.674273E+00   2.479831E-01   2.718047E+00   9.677228E+00   3.801839E+00   5.132567E+00   2.084294E-01   3.879836E+00   3.941831E+00   8.948517E-01   5.145453E-01   4.237899E+00   5.990599E-01   4.233606E+00   8.570778E+00   1.194334E+01   9.510623E-01   9.716781E+00   6.861432E-01   2.164346E+00   6.894203E+00   4.274832E-01   3.606479E+00   6.038399E+00   4.410172E+00   2.284917E+00   5.887575E+00   5.235963E-01   2.576549E+00   9.155732E+00   1.622865E+01   2.765899E+00   4.605390E+00   7.371122E+00   4.034759E+00   3.136765E+00   8.526574E-01   3.298902E+00   9.519047E+00   4.315607E-01   4.558401E+00   4.004204E+00   3.393263E+00   4.053897E+00   6.222722E+00   8.371843E-01   2.611058E+00   7.678289E+00   9.014242E-01   3.012372E+00   2.454735E+00   1.787440E+01   2.664025E+00   1.378212E+01   9.540543E+00   4.791729E+00   9.497483E+00   1.348620E+01   1.919383E+00   3.361489E+00   2.197054E-01   1.384804E+00   5.612549E+00   2.116646E-01   2.602747E+00   1.314146E+01   1.926829E+01   2.242994E+00   9.755819E+00   3.326292E+00   4.799516E+00   6.673347E+00   9.642885E+00   1.997725E+00   1.451516E+01   4.749313E+00   9.985334E-01   7.731678E+00   1.143066E+01   1.499781E+00   3.287491E+00   1.109543E+01   2.638838E+00   5.242192E+00   4.976541E-01   1.926650E+00   4.839657E+00   4.795508E-01   1.960216E+00   1.310568E+00   1.452569E+00   2.602897E+00   6.584180E+00   5.524330E-01   3.010719E+00   1.827613E+00   4.423113E-01   9.877335E-01   1.128020E+01   2.160724E+01   1.138832E+00   6.261458E+00   1.605793E+00   5.338753E-01   7.962241E+00   1.350818E+00   5.350561E-01   1.018566E+01   1.227365E+01   3.381587E+00   5.548337E+00   2.005467E+00   1.971330E+00   2.608040E+00   7.175098E-01   3.773282E+00   6.532298E-01   2.021391E-01   4.562263E+00   6.507091E+00   3.848527E-01   5.931592E-01   9.890094E-01   2.062670E-01   1.790321E+00   5.524234E+00   1.387731E+01   3.142772E+00   1.166546E+01   3.563808E-01   8.455101E-01   2.091746E-01   6.923497E-01   3.629528E+00   2.769599E+00   8.767375E+00   4.356580E+00   3.787068E+00   2.125230E-01   1.385686E+00   1.028994E+00   1.045540E+00   6.229731E-01   6.486632E+00   1.594482E+01   3.972485E+00   1.006436E+01   7.870100E-01   3.903263E+00   4.832537E+00   1.106020E+00   3.058668E+00   5.811217E+00   5.100707E-01   1.887084E+00   4.278199E+00   1.368748E+00   2.042950E+00   1.428969E+01   6.021069E+00   1.729487E+00   9.643890E+00   3.858289E-01   4.082115E+00   7.772886E+00   9.220634E+00   4.431551E+00   1.162818E+01   2.031437E-01   3.134098E+00   5.760427E+00   2.563984E+00   5.802848E-01   7.629104E+00   7.893619E+00   5.513446E-01   6.462747E+00   3.395879E+00   3.061884E+00   1.314126E+01   1.152221E+00   4.558333E+00   1.263571E+01   2.045771E+01   2.699128E+00   3.440272E+00   7.332782E-01   1.955693E+00   3.150640E+00   3.477765E+00   4.521713E+00   7.674866E+00   2.241525E+01   1.489840E+00   4.104482E+00   6.211445E-01   1.198672E+00   5.225783E+00   1.261752E+01   2.508243E+00   4.147004E+00   9.522556E+00   3.310658E-01   9.435052E+00   3.742068E+00   2.570770E+00   2.684084E+00   5.921896E+00   5.616222E-01   9.839762E+00   5.478040E+00   2.075340E+00   1.175166E+01   1.275165E+00   2.826035E+00   3.259266E+00   1.177109E+01   1.901274E+00   6.163204E+00   8.188619E+00   3.852538E+00   3.261889E+00   1.338687E+00   6.161835E-01   5.741834E+00   7.290737E+00   1.208061E+00   7.435560E+00   1.095408E+00   4.949859E-01   4.527429E+00   2.086976E-01   5.093533E-01   1.416473E+01   8.382310E-01   3.852539E+00   2.904459E+00   1.970668E-01   3.976712E+00   6.775795E+00   1.371098E+01   4.377688E+00   1.145785E+01   2.390539E+00   2.048509E+00   3.119360E-01   1.069422E+00   3.561447E+00   7.054187E+00   1.471911E+00   2.137666E+00   1.963007E+00   2.173281E-01   4.056311E-01   3.353914E+00   7.681505E+00   1.903914E+00   2.520463E-01   1.345805E+00   3.283823E+00   1.560750E+00   4.071160E+00   3.919645E-01   6.128721E+00   1.184596E+01   1.248642E+00   9.170713E+00   2.326838E+01   2.760784E+00   2.288929E-01   1.060822E+00   1.787745E+00   5.269834E+00   1.069997E+00   3.944782E+00   1.405117E+01   4.965040E+00   2.500161E+00   7.577502E+00   1.477791E+01   3.908999E+00   8.316723E-01   6.392108E-01   1.145007E+00   7.473833E+00   1.880672E+00   4.659147E+00   6.616405E+00   1.991928E-01   4.833241E+00   1.013194E+00   1.357880E+00   1.637225E+00   1.300546E+01   8.748251E+00   3.659689E+00   9.016257E+00   6.827246E+00   3.655536E-01   5.471049E-01   4.661616E-01   2.219333E-01   2.081825E-01   2.055695E-01   1.988522E+00   2.005966E-01   9.165354E-01   9.883297E-01   2.126667E+00   2.836583E-01   7.590137E-01   6.659077E+00   1.995025E-01   4.044321E+00   9.967470E+00   1.345124E+01   2.379997E+00   6.892039E+00   1.685767E+01   2.453892E+00   5.948037E+00   4.585097E-01   7.417236E-01   1.212240E+00   5.985637E-01   3.630431E+00   2.833826E+00   1.285443E+01   3.866152E+00   4.577841E+00   3.527920E+00   4.887474E+00   4.714584E+00   1.479250E+00   1.720006E+00   3.006994E+00   2.543817E-01   1.103111E+00   1.609444E+00   9.996028E+00   2.849547E+00   7.212142E+00   1.447574E+01   8.208748E-01   7.089636E+00   1.062213E+00   1.471235E+00   1.102177E+01   1.026467E+00   1.630837E+00   2.918854E+00   3.290882E-01   3.272646E-01   8.407062E+00   5.804530E-01   2.541649E-01   4.041892E+00   5.613945E+00   3.754490E+00   1.130783E+01   2.550744E-01   6.135747E-01   1.099126E+01   2.425240E-01   3.601736E+00   1.350208E+01   9.711525E+00   1.772113E+00   9.681531E+00   6.718345E+00   1.995216E+00   2.348274E-01   5.744377E-01   1.361327E+00   4.884613E+00   2.029400E-01   1.375981E+00   1.875623E+00   1.555495E+01   3.199239E+00   1.497732E+00   9.546994E+00   4.754592E+00   1.685643E+00   2.223900E-01   6.883343E-01   4.198716E+00   1.019063E+00   2.643562E+00   3.554021E-01   1.042699E+00   2.984537E+00   3.203923E+00   5.341755E-01   3.560103E+00   6.121582E+00   2.523458E+00   4.400911E+00   2.659799E+00   5.607480E+00   3.294402E+00   2.578220E+00   4.149818E+00   2.889968E+00   3.396657E+00   8.364880E+00   3.129675E+00   4.278406E+00   4.808398E-01   8.638611E-01   5.691331E+00   2.001401E-01   5.579685E-01   7.716641E+00   1.787498E+00   3.293299E+00   9.682130E+00   2.436408E-01   1.261356E+00   1.312586E+01   6.280273E+00   3.329057E+00   6.938777E+00   1.388906E+00   7.092483E-01   6.166573E+00   5.418161E-01   3.005823E+00   1.386611E+00   3.013188E-01   2.004590E+00   1.602049E+00   1.180190E+01   2.745975E+00   4.159084E+00   9.684343E+00   1.593395E+00   8.720189E+00   2.325864E-01   1.777662E+00   6.710896E-01   1.381195E+01  
[...]
<PointData Scalars="Diameter" Vectors="Velocity">
<DataArray type="Float32" Name="Diameter" format="ascii">
  4.000000E-01   4.000000E-01   4.000000E-01   4.000000E-01   4.000000E-01   4.000000E-01   4.000000E-01   4.000000E-01   4.000000E-01   4.000000E-01   4.000000E-01   4.000000E-01   4.000000E-01   4.000000E-01   4.000000E-01   4.000000E-01   4.000000E-01   4.000000E-01   4.000000E-01   4.000000E-01   4.000000E-01   4.000000E-01   4.000000E-01   4.000000E-01   4.000000E-01   4.000000E-01   4.000000E-01   4.000000E-01   4.000000E-01   4.000000E-01   4.000000E-01   4.000000E-01   4.000000E-01   4.000000E-01   4.000000E-01   4.000000E-01   4.000000E-01   4.000000E-01   4.000000E-01   4.000000E-01   4.000000E-01   4.000000E-01   4.000000E-01   4.000000E-01   4.000000E-01   4.000000E-01   4.000000E-01   4.000000E-01   4.000000E-01   4.000000E-01   4.000000E-01   4.000000E-01   4.000000E-01   4.000000E-01   4.000000E-01   4.000000E-01   4.000000E-01   4.000000E-01   4.000000E-01   4.000000E-01   4.000000E-01   4.000000E-01   4.000000E-01   4.000000E-01   4.000000E-01   4.000000E-01   4.000000E-01   4.000000E-01   4.000000E-01   4.000000E-01   4.000000E-01   4.000000E-01   4.000000E-01   4.000000E-01   4.000000E-01   4.000000E-01   4.000000E-01   4.000000E-01   4.000000E-01   4.000000E-01   4.000000E-01   4.000000E-01   4.000000E-01   4.000000E-01   4.000000E-01   4.000000E-01   4.000000E-01   4.000000E-01   4.000000E-01   4.000000E-01   4.000000E-01   4.000000E-01   4.000000E-01   4.000000E-01   4.000000E-01   4.000000E-01   4.000000E-01   4.000000E-01   4.000000E-01   4.000000E-01   4.000000E-01   4.000000E-01   4.000000E-01   4.000000E-01   4.000000E-01   4.000000E-01   4.000000E-01   4.000000E-01   4.000000E-01   4.000000E-01   4.000000E-01   4.000000E-01   4.000000E-01   4.000000E-01   4.000000E-01   4.000000E-01   4.000000E-01   4.000000E-01   4.000000E-01   4.000000E-01   4.000000E-01   4.000000E-01   4.000000E-01   4.000000E-01   4.000000E-01   4.000000E-01   4.000000E-01   4.000000E-01   4.000000E-01   4.000000E-01   4.000000E-01   4.000000E-01   4.000000E-01   4.000000E-01   4.000000E-01   4.000000E-01   4.000000E-01   4.000000E-01   4.000000E-01   4.000000E-01   4.000000E-01   4.000000E-01   4.000000E-01   4.000000E-01   4.000000E-01   4.000000E-01   4.000000E-01   4.000000E-01   4.000000E-01   4.000000E-01   4.000000E-01   4.000000E-01   4.000000E-01   4.000000E-01   4.000000E-01   4.000000E-01   4.000000E-01   4.000000E-01   4.000000E-01   4.000000E-01   4.000000E-01   4.000000E-01   4.000000E-01   4.000000E-01   4.000000E-01   4.000000E-01   4.000000E-01   4.000000E-01   4.000000E-01   4.000000E-01   4.000000E-01   4.000000E-01   4.000000E-01   4.000000E-01   4.000000E-01   4.000000E-01   4.000000E-01   4.000000E-01   4.000000E-01   4.000000E-01   4.000000E-01   4.000000E-01   4.000000E-01   4.000000E-01   4.000000E-01   4.000000E-01   4.000000E-01   4.000000E-01   4.000000E-01   4.000000E-01   4.000000E-01   4.000000E-01   4.000000E-01   4.000000E-01   4.000000E-01   4.000000E-01   4.000000E-01   4.000000E-01   4.000000E-01   4.000000E-01   4.000000E-01   4.000000E-01   4.000000E-01   4.000000E-01   4.000000E-01   4.000000E-01   4.000000E-01   4.000000E-01   4.000000E-01   4.000000E-01   4.000000E-01   4.000000E-01   4.000000E-01   4.000000E-01   4.000000E-01   4.000000E-01   4.000000E-01   4.000000E-01   4.000000E-01   4.000000E-01   4.000000E-01   4.000000E-01   4.000000E-01   4.000000E-01   4.000000E-01   4.000000E-01   4.000000E-01   4.000000E-01   4.000000E-01   4.000000E-01   4.000000E-01   4.000000E-01   4.000000E-01   4.000000E-01   4.000000E-01   4.000000E-01   4.000000E-01   4.000000E-01   4.000000E-01   4.000000E-01   4.000000E-01   4.000000E-01   4.000000E-01   4.000000E-01   4.000000E-01   4.000000E-01   4.000000E-01   4.000000E-01   4.000000E-01   4.000000E-01   4.000000E-01   4.000000E-01   4.000000E-01   4.000000E-01   4.000000E-01   4.000000E-01   4.000000E-01   4.000000E-01   4.000000E-01   4.000000E-01   4.000000E-01   4.000000E-01   4.000000E-01   4.000000E-01   4.000000E-01   4.000000E-01   4.000000E-01   4.000000E-01   4.000000E-01   4.000000E-01   4.000000E-01   4.000000E-01   4.000000E-01   4.000000E-01   4.000000E-01   4.000000E-01   4.000000E-01   4.000000E-01   4.000000E-01   4.000000E-01   4.000000E-01   4.000000E-01   4.000000E-01   4.000000E-01   4.000000E-01   4.000000E-01   4.000000E-01   4.000000E-01   4.000000E-01   4.000000E-01   4.000000E-01   4.000000E-01   4.000000E-01   4.000000E-01   4.000000E-01   4.000000E-01   4.000000E-01   4.000000E-01   4.000000E-01   4.000000E-01   4.000000E-01   4.000000E-01   4.000000E-01   4.000000E-01   4.000000E-01   4.000000E-01   4.000000E-01   4.000000E-01   4.000000E-01   4.000000E-01   4.000000E-01   4.000000E-01   4.000000E-01   4.000000E-01   4.000000E-01   4.000000E-01   4.000000E-01   4.000000E-01   4.000000E-01   4.000000E-01   4.000000E-01   4.000000E-01   4.000000E-01   4.000000E-01   4.000000E-01   4.000000E-01   4.000000E-01   4.000000E-01   4.000000E-01   4.000000E-01   4.000000E-01   4.000000E-01   4.000000E-01   4.000000E-01   4.000000E-01   4.000000E-01   4.000000E-01   4.000000E-01   4.000000E-01   4.000000E-01   4.000000E-01   4.000000E-01   4.000000E-01   4.000000E-01   4.000000E-01   4.000000E-01   4.000000E-01   4.000000E-01   4.000000E-01   4.000000E-01   4.000000E-01   4.000000E-01   4.000000E-01   4.000000E-01   4.000000E-01   4.000000E-01   4.000000E-01   4.000000E-01   4.000000E-01   4.000000E-01   4.000000E-01   4.000000E-01   4.000000E-01   4.000000E-01   4.000000E-01   4.000000E-01   4.000000E-01   4.000000E-01   4.000000E-01   4.000000E-01   4.000000E-01   4.000000E-01   4.000000E-01   4.000000E-01   4.000000E-01   4.000000E-01   4.000000E-01   4.000000E-01   4.000000E-01   4.000000E-01   4.000000E-01   4.000000E-01   4.000000E-01   4.000000E-01   4.000000E-01   4.000000E-01   4.000000E-01   4.000000E-01   4.000000E-01   4.000000E-01   4.000000E-01   4.000000E-01   4.000000E-01   4.000000E-01   4.000000E-01   4.000000E-01   4.000000E-01   4.000000E-01   4.000000E-01   4.000000E-01   4.000000E-01   4.000000E-01   4.000000E-01   4.000000E-01   4.000000E-01   4.000000E-01   4.000000E-01   4.000000E-01   4.000000E-01   4.000000E-01   4.000000E-01   4.000000E-01   4.000000E-01   4.000000E-01   4.000000E-01   4.000000E-01   4.000000E-01   4.000000E-01   4.000000E-01   4.000000E-01   4.000000E-01   4.000000E-01   4.000000E-01   4.000000E-01   4.000000E-01   4.000000E-01   4.000000E-01   4.000000E-01   4.000000E-01   4.000000E-01   4.000000E-01   4.000000E-01   4.000000E-01   4.000000E-01   4.000000E-01   4.000000E-01   4.000000E-01   4.000000E-01   4.000000E-01   4.000000E-01   4.000000E-01   4.000000E-01   4.000000E-01   4.000000E-01   4.000000E-01   4.000000E-01   4.000000E-01   4.000000E-01   4.000000E-01   4.000000E-01   4.000000E-01   4.000000E-01   4.000000E-01   4.000000E-01   4.000000E-01   4.000000E-01   4.000000E-01   4.000000E-01   4.000000E-01   4.000000E-01   4.000000E-01   4.000000E-01   4.000000E-01   4.000000E-01   4.000000E-01   4.000000E-01   4.000000E-01   4.000000E-01   4.000000E-01   4.000000E-01   4.000000E-01   4.000000E-01   4.000000E-01   4.000000E-01   4.000000E-01   4.000000E-01   4.000000E-01   4.000000E-01   4.000000E-01   4.000000E-01   4.000000E-01   4.000000E-01   4.000000E-01   4.000000E-01   4.000000E-01   4.000000E-01   4.000000E-01   4.000000E-01   4.000000E-01   4.000000E-01   4.000000E-01   4.000000E-01   4.000000E-01   4.000000E-01   4.000000E-01   4.000000E-01   4.000000E-01   4.000000E-01   4.000000E-01   4.000000E-01   4.000000E-01   4.000000E-01   4.000000E-01   4.000000E-01   4.000000E-01   4.000000E-01   4.000000E-01   4.000000E-01   4.000000E-01   4.000000E-01   4.000000E-01   4.000000E-01   4.000000E-01   4.000000E-01   4.000000E-01   4.000000E-01   4.000000E-01   4.000000E-01   4.000000E-01   4.000000E-01   4.000000E-01   4.000000E-01   4.000000E-01   4.000000E-01   4.000000E-01   4.000000E-01   4.000000E-01   4.000000E-01   4.000000E-01   4.000000E-01   4.000000E-01   4.000000E-01   4.000000E-01   4.000000E-01   4.000000E-01   4.000000E-01   4.000000E-01   4.000000E-01   4.000000E-01   4.000000E-01   4.000000E-01   4.000000E-01   4.000000E-01   4.000000E-01   4.000000E-01   4.000000E-01   4.000000E-01   4.000000E-01   4.000000E-01   4.000000E-01   4.000000E-01   4.000000E-01   4.000000E-01   4.000000E-01   4.000000E-01   4.000000E-01   4.000000E-01   4.000000E-01   4.000000E-01   4.000000E-01   4.000000E-01   4.000000E-01   4.000000E-01   4.000000E-01   4.000000E-01   4.000000E-01   4.000000E-01   4.000000E-01   4.000000E-01   4.000000E-01   4.000000E-01   4.000000E-01   4.000000E-01   4.000000E-01   4.000000E-01   4.000000E-01   4.000000E-01   4.000000E-01   4.000000E-01   4.000000E-01   4.000000E-01   4.000000E-01   4.000000E-01   4.000000E-01   4.000000E-01   4.000000E-01   4.000000E-01   4.000000E-01   4.000000E-01   4.000000E-01   4.000000E-01   4.000000E-01   4.000000E-01   4.000000E-01   4.000000E-01   4.000000E-01   4.000000E-01   4.000000E-01   4.000000E-01   4.000000E-01   4.000000E-01   4.000000E-01   4.000000E-01   4.000000E-01   4.000000E-01   4.000000E-01   4.000000E-01   4.000000E-01   4.000000E-01   4.000000E-01   4.000000E-01   4.000000E-01   4.000000E-01   4.000000E-01   4.000000E-01   4.000000E-01   4.000000E-01   4.000000E-01   4.000000E-01   4.000000E-01   4.000000E-01   4.000000E-01   4.000000E-01   4.000000E-01   4.000000E-01   4.000000E-01   4.000000E-01   4.000000E-01   4.000000E-01   4.000000E-01   4.000000E-01   4.000000E-01   4.000000E-01   4.000000E-01   4.000000E-01   4.000000E-01   4.000000E-01   4.000000E-01   4.000000E-01   4.000000E-01   4.000000E-01   4.000000E-01   4.000000E-01   4.000000E-01   4.000000E-01   4.000000E-01   4.000000E-01   4.000000E-01   4.000000E-01   4.000000E-01   4.000000E-01   4.000000E-01   4.000000E-01   4.000000E-01   4.000000E-01   4.000000E-01   4.000000E-01   4.000000E-01   4.000000E-01   4.000000E-01   4.000000E-01   4.000000E-01   4.000000E-01   4.000000E-01   4.000000E-01   4.000000E-01   4.000000E-01   4.000000E-01   4.000000E-01   4.000000E-01   4.000000E-01   4.000000E-01   4.000000E-01   4.000000E-01   4.000000E-01   4.000000E-01   4.000000E-01   4.000000E-01   4.000000E-01   4.000000E-01   4.000000E-01   4.000000E-01   4.000000E-01   4.000000E-01   4.000000E-01   4.000000E-01   4.000000E-01   4.000000E-01   4.000000E-01   4.000000E-01   4.000000E-01   4.000000E-01   4.000000E-01   4.000000E-01   4.000000E-01   4.000000E-01   4.000000E-01   4.000000E-01   4.000000E-01   4.000000E-01   4.000000E-01   4.000000E-01   4.000000E-01   4.000000E-01   4.000000E-01   4.000000E-01   4.000000E-01   4.000000E-01   4.000000E-01   4.000000E-01   4.000000E-01   4.000000E-01   4.000000E-01   4.000000E-01   4.000000E-01   4.000000E-01   4.000000E-01   4.000000E-01   4.000000E-01   4.000000E-01   4.000000E-01   4.000000E-01   4.000000E-01   4.000000E-01   4.000000E-01   4.000000E-01   4.000000E-01   4.000000E-01   4.000000E-01   4.000000E-01   4.000000E-01   4.000000E-01   4.000000E-01   4.000000E-01   4.000000E-01   4.000000E-01   4.000000E-01   4.000000E-01   4.000000E-01   4.000000E-01   4.000000E-01   4.000000E-01   4.000000E-01   4.000000E-01   4.000000E-01   4.000000E-01   4.000000E-01   4.000000E-01   4.000000E-01   4.000000E-01   4.000000E-01   4.000000E-01   4.000000E-01   4.000000E-01   4.000000E-01   4.000000E-01   4.000000E-01   4.000000E-01   4.000000E-01   4.000000E-01   4.000000E-01   4.000000E-01   4.000000E-01   4.000000E-01   4.000000E-01   4.000000E-01   4.000000E-01   4.000000E-01   4.000000E-01   4.000000E-01   4.000000E-01   4.000000E-01   4.000000E-01   4.000000E-01   4.000000E-01   4.000000E-01   4.000000E-01   4.000000E-01   4.000000E-01   4.000000E-01   4.000000E-01   4.000000E-01   4.000000E-01   4.000000E-01   4.000000E-01   4.000000E-01   4.000000E-01   4.000000E-01   4.000000E-01   4.000000E-01   4.000000E-01   4.000000E-01   4.000000E-01   4.000000E-01   4.000000E-01   4.000000E-01   4.000000E-01   4.000000E-01   4.000000E-01   4.000000E-01   4.000000E-01   4.000000E-01   4.000000E-01   4.000000E-01   4.000000E-01   4.000000E-01   4.000000E-01   4.000000E-01   4.000000E-01   4.000000E-01   4.000000E-01   4.000000E-01   4.000000E-01   4.000000E-01   4.000000E-01   4.000000E-01   4.000000E-01   4.000000E-01   4.000000E-01   4.000000E-01   4.000000E-01   4.000000E-01   4.000000E-01   4.000000E-01   4.000000E-01   4.000000E-01   4.000000E-01   4.000000E-01   4.000000E-01   4.000000E-01   4.000000E-01   4.000000E-01   4.000000E-01   4.000000E-01   4.000000E-01   4.000000E-01   4.000000E-01   4.000000E-01   4.000000E-01   4.000000E-01   4.000000E-01   4.000000E-01   4.000000E-01   4.000000E-01   4.000000E-01   4.000000E-01   4.000000E-01   4.000000E-01   4.000000E-01   4.000000E-01   4.000000E-01   4.000000E-01   4.000000E-01   4.000000E-01   4.000000E-01   4.000000E-01   4.000000E-01   4.000000E-01   4.000000E-01   4.000000E-01   4.000000E-01   4.000000E-01   4.000000E-01   4.000000E-01   4.000000E-01   4.000000E-01   4.000000E-01   4.000000E-01   4.000000E-01   4.000000E-01   4.000000E-01   4.000000E-01   4.000000E-01   4.000000E-01   4.000000E-01   4.000000E-01   4.000000E-01   4.000000E-01   4.000000E-01   4.000000E-01   4.000000E-01   4.000000E-01   4.000000E-01   4.000000E-01   4.000000E-01   4.000000E-01   4.000000E-01   4.000000E-01   4.000000E-01   4.000000E-01   4.000000E-01   4.000000E-01   4.000000E-01   4.000000E-01   4.000000E-01   4.000000E-01   4.000000E-01   4.000000E-01   4.000000E-01   4.000000E-01   4.000000E-01   4.000000E-01   4.000000E-01   4.000000E-01   4.000000E-01   4.000000E-01   4.000000E-01   4.000000E-01   4.000000E-01   4.000000E-01   4.000000E-01   4.000000E-01   4.000000E-01   4.000000E-01   4.000000E-01   4.000000E-01   4.000000E-01   4.000000E-01   4.000000E-01   4.000000E-01   4.000000E-01   4.000000E-01   4.000000E-01   4.000000E-01   4.000000E-01   4.000000E-01   4.000000E-01   4.000000E-01   4.000000E-01   4.000000E-01   4.000000E-01   4.000000E-01   4.000000E-01   4.000000E-01   4.000000E-01   4.000000E-01   4.000000E-01   4.000000E-01   4.000000E-01   4.000000E-01   4.000000E-01   4.000000E-01   4.000000E-01   4.000000E-01   4.000000E-01   4.000000E-01   4.000000E-01   4.000000E-01   4.000000E-01   4.000000E-01   4.000000E-01   4.000000E-01   4.000000E-01   4.000000E-01   4.000000E-01   4.000000E-01   4.000000E-01   4.000000E-01   4.000000E-01   4.000000E-01   4.000000E-01   4.000000E-01   4.000000E-01   4.000000E-01   4.000000E-01   4.000000E-01   4.000000E-01   4.000000E-01   4.000000E-01   4.000000E-01   4.000000E-01   4.000000E-01   4.000000E-01   4.000000E-01   4.000000E-01   4.000000E-01   4.000000E-01   4.000000E-01   4.000000E-01   4.000000E-01   4.000000E-01   4.000000E-01   4.000000E-01   4.000000E-01   4.000000E-01   4.000000E-01   4.000000E-01   4.000000E-01   4.000000E-01   4.000000E-01   4.000000E-01   4.000000E-01   4.000000E-01   4.000000E-01   4.000000E-01   4.000000E-01   4.000000E-01   4.000000E-01   4.000000E-01   4.000000E-01   4.000000E-01   4.000000E-01   4.000000E-01   4.000000E-01   4.000000E-01   4.000000E-01   4.000000E-01   4.000000E-01   4.000000E-01   4.000000E-01   4.000000E-01   4.000000E-01   4.000000E-01   4.000000E-01   4.000000E-01   4.000000E-01   4.000000E-01   4.000000E-01   4.000000E-01   4.000000E-01   4.000000E-01   4.000000E-01   4.000000E-01   4.000000E-01   4.000000E-01   4.000000E-01   4.000000E-01   4.000000E-01   4.000000E-01   4.000000E-01   4.000000E-01   4.000000E-01   4.000000E-01   4.000000E-01   4.000000E-01   4.000000E-01   4.000000E-01   4.000000E-01   4.000000E-01   4.000000E-01   4.000000E-01   4.000000E-01   4.000000E-01   4.000000E-01   4.000000E-01   4.000000E-01   4.000000E-01   4.000000E-01   4.000000E-01   4.000000E-01   4.000000E-01   4.000000E-01   4.000000E-01   4.000000E-01   4.000000E-01   4.000000E-01   4.000000E-01   4.000000E-01   4.000000E-01   4.000000E-01   4.000000E-01   4.000000E-01   4.000000E-01   4.000000E-01   4.000000E-01   4.000000E-01   4.000000E-01   4.000000E-01   4.000000E-01   4.000000E-01   4.000000E-01   4.000000E-01   4.000000E-01   4.000000E-01   4.000000E-01   4.000000E-01   4.000000E-01   4.000000E-01   4.000000E-01   4.000000E-01   4.000000E-01   4.000000E-01   4.000000E-01   4.000000E-01   4.000000E-01   4.000000E-01   4.000000E-01   4.000000E-01   4.000000E-01   4.000000E-01   4.000000E-01   4.000000E-01   4.000000E-01   4.000000E-01   4.000000E-01   4.000000E-01   4.000000E-01   4.000000E-01   4.000000E-01   4.000000E-01   4.000000E-01   4.000000E-01   4.000000E-01   4.000000E-01   4.000000E-01   4.000000E-01   4.000000E-01   4.000000E-01   4.000000E-01   4.000000E-01   4.000000E-01   4.000000E-01   4.000000E-01   4.000000E-01   4.000000E-01   4.000000E-01   4.000000E-01   4.000000E-01   4.000000E-01   4.000000E-01   4.000000E-01   4.000000E-01   4.000000E-01   4.000000E-01   4.000000E-01   4.000000E-01   4.000000E-01   4.000000E-01   4.000000E-01   4.000000E-01   4.000000E-01   4.000000E-01   4.000000E-01   4.000000E-01   4.000000E-01   4.000000E-01   4.000000E-01   4.000000E-01   4.000000E-01   4.000000E-01   4.000000E-01   4.000000E-01   4.000000E-01   4.000000E-01   4.000000E-01   4.000000E-01   4.000000E-01   4.000000E-01   4.000000E-01   4.000000E-01   4.000000E-01   4.000000E-01   4.000000E-01   4.000000E-01   4.000000E-01   4.000000E-01   4.000000E-01   4.000000E-01   4.000000E-01   4.000000E-01   4.000000E-01   4.000000E-01   4.000000E-01   4.000000E-01   4.000000E-01   4.000000E-01   4.000000E-01   4.000000E-01   4.000000E-01   4.000000E-01   4.000000E-01   4.000000E-01   4.000000E-01   4.000000E-01   4.000000E-01   4.000000E-01   4.000000E-01   4.000000E-01   4.000000E-01   4.000000E-01   4.000000E-01   4.000000E-01   4.000000E-01   4.000000E-01   4.000000E-01   4.000000E-01   4.000000E-01   4.000000E-01   4.000000E-01   4.000000E-01   4.000000E-01   4.000000E-01   4.000000E-01   4.000000E-01   4.000000E-01   4.000000E-01   4.000000E-01   4.000000E-01   4.000000E-01   4.000000E-01   4.000000E-01   4.000000E-01   4.000000E-01   4.000000E-01   4.000000E-01   4.000000E-01   4.000000E-01   4.000000E-01   4.000000E-01   4.000000E-01   4.000000E-01   4.000000E-01   4.000000E-01   4.000000E-01   4.000000E-01   4.000000E-01   4.000000E-01   4.000000E-01   4.000000E-01   4.000000E-01   4.000000E-01   4.000000E-01   4.000000E-01   4.000000E-01   4.000000E-01   4.000000E-01   4.000000E-01   4.000000E-01   4.000000E-01   4.000000E-01   4.000000E-01   4.000000E-01   4.000000E-01   4.000000E-01   4.000000E-01   4.000000E-01   4.000000E-01   4.000000E-01   4.000000E-01   4.000000E-01   4.000000E-01   4.000000E-01   4.000000E-01   4.000000E-01   4.000000E-01   4.000000E-01   4.000000E-01   4.000000E-01   4.000000E-01   4.000000E-01   4.000000E-01   4.000000E-01   4.000000E-01   4.000000E-01   4.000000E-01   4.000000E-01   4.000000E-01   4.000000E-01   4.000000E-01   4.000000E-01   4.000000E-01   4.000000E-01   4.000000E-01   4.000000E-01   4.000000E-01   4.000000E-01   4.000000E-01   4.000000E-01   4.000000E-01   4.000000E-01   4.000000E-01   4.000000E-01   4.000000E-01   4.000000E-01   4.000000E-01   4.000000E-01   4.000000E-01   4.000000E-01   4.000000E-01   4.000000E-01   4.000000E-01   4.000000E-01   4.000000E-01   4.000000E-01   4.000000E-01   4.000000E-01   4.000000E-01   4.000000E-01   4.000000E-01   4.000000E-01   4.000000E-01   4.000000E-01   4.000000E-01   4.000000E-01   4.000000E-01   4.000000E-01   4.000000E-01   4.000000E-01   4.000000E-01   4.000000E-01   4.000000E-01   4.000000E-01   4.000000E-01   4.000000E-01   4.000000E-01   4.000000E-01   4.000000E-01   4.000000E-01   4.000000E-01   4.000000E-01   4.000000E-01   4.000000E-01   4.000000E-01   4.000000E-01   4.000000E-01   4.000000E-01   4.000000E-01   4.000000E-01   4.000000E-01   4.000000E-01   4.000000E-01   4.000000E-01   4.000000E-01   4.000000E-01   4.000000E-01   4.000000E-01   