<?xml version="1.0"?>
<!-- Time =  3.1999776260279140E+00s -->
<VTKFile type="PolyData" version="0.1" byte_order="LittleEndian">
<PolyData>
<Piece NumberOfPoints="0000002400" NumberOfVerts="0" NumberOfLines="0" NumberOfStrips="0" NumberOfPolys="0">
<Points>
<DataArray type="Float32" Name="Position" NumberOfComponents="3" format="ascii">
  6.598192E+00   2.321436E-01   3.973296E-01   1.309086E+01   7.708574E-01   3.387082E+00   1.291770E+01   7.264721E-01   4.363842E+00   6.718572E+00   1.909490E+00   2.086105E+00   1.638716E+00   8.185162E-01   2.692930E+00   5.564413E+00   2.525613E+00   4.167267E+00   1.072244E+01   1.591338E+01   2.771014E+00   7.545800E+00   9.433496E+00   3.406751E+00   2.366576E+00   2.096931E-01   2.406573E+00   1.054703E+01   1.407028E+01   3.470149E+00   4.112968E+00   1.986205E-01   4.081819E+00   1.110615E+01   8.092008E+00   1.646137E+00   5.903308E+00   4.427364E+00   2.523520E+00   8.770245E-01   9.985111E-01   2.703506E+00   8.822110E+00   1.079609E+01   2.867134E+00   6.644893E+00   2.462888E+00   2.558758E+00   5.131549E+00   1.403375E+01   1.872691E+00   9.148546E+00   2.926953E-01   2.062208E+00   2.580589E+00   1.483619E+00   4.234050E+00   8.837458E+00   2.584871E-01   2.607228E+00   4.332294E+00   5.415046E-01   4.054222E+00   1.332321E+01   4.490176E-01   2.877180E+00   5.281260E+00   3.298920E+00   3.572685E+00   5.608879E+00   4.894325E-01   4.387049E+00   6.412030E+00   5.212516E+00   1.770208E+00   1.129684E+00   5.878083E-01   3.537032E+00   5.012020E+00   8.164062E-01   2.756554E+00   4.278936E+00   1.133544E+00   3.490191E+00   6.453516E+00   8.138062E+00   4.145716E+00   6.549653E+00   1.148867E+00   2.478118E+00   4.133515E+00   9.704671E-01   3.911172E+00   1.047590E+01   6.080331E-01   1.286690E+00   5.655231E+00   1.670447E+00   2.106680E+00   2.087967E+00   2.169472E-01   4.319980E+00   7.281759E+00   1.425632E+01   2.360160E+00   1.069547E+01   1.501831E+01   2.207948E+00   1.412970E+01   2.872684E-01   2.071730E+00   7.580684E-01   1.248384E+00   3.450747E+00   5.428716E+00   5.474700E-01   1.818314E+00   3.236855E+00   8.431716E+00   6.946481E-01   1.279502E+01   7.111232E-01   1.065479E+00   4.187440E+00   5.637247E-01   3.657059E+00   7.150673E+00   1.339789E+00   4.151955E+00   3.023937E+00   5.730425E-01   5.731992E-01   5.831239E+00   2.455318E-01   9.752789E-01   6.497659E+00   8.407568E+00   2.195288E+00   2.973745E+00   1.055857E+00   2.950452E+00   3.580163E+00   6.679767E+00   4.025120E-01   6.806505E+00   8.466680E+00   4.011139E+00   4.235463E+00   1.885807E+01   1.244149E+00   5.516458E+00   4.296185E+00   4.845028E+00   5.026503E-01   6.015965E-01   4.138840E+00   7.676935E+00   8.133024E+00   1.697691E+00   3.344519E+00   5.661182E-01   1.268244E+00   7.361053E+00   3.983010E+00   2.887792E+00   1.201854E+01   2.286443E-01   2.509911E+00   3.898702E+00   8.145182E-01   2.318521E+00   8.312002E+00   1.376918E+00   8.891248E-01   8.530139E+00   2.227179E-01   2.945739E-01   1.064719E+01   4.722663E-01   2.702614E+00   5.271444E+00   4.848138E+00   3.599891E+00   1.095935E+01   1.458849E+00   4.124026E+00   7.005847E+00   3.113831E-01   4.013272E-01   3.015926E+00   9.777985E-01   1.425800E+00   6.662542E+00   5.065091E+00   2.630999E+00   3.384647E+00   7.663640E-01   2.300279E-01   7.451895E+00   3.810728E-01   5.363410E-01   1.268063E+01   8.254746E-01   1.475018E+00   1.744599E+00   5.929310E-01   8.325334E-01   1.432757E+00   7.308134E+00   4.191578E+00   1.475592E+01   2.204424E-01   4.341952E+00   1.182970E+01   1.272723E+01   4.285381E+00   5.576492E+00   1.973189E-01   1.291412E+00   1.467042E+01   1.362981E+00   1.333020E+00   2.660689E+00   5.477605E-01   8.136957E-01   7.426263E+00   1.442527E+00   1.536581E+00   5.033716E-01   5.458168E-01   2.044501E-01   7.115168E+00   5.031048E+00   2.698287E+00   1.298319E+00   1.662344E+00   6.713608E-01   9.902331E+00   1.552470E+01   8.881410E-01   4.887180E+00   1.996442E-01   4.488334E+00   7.792084E+00   5.199324E-01   3.078746E+00   4.829696E+00   8.097042E-01   4.846506E+00   4.012347E+00   2.006931E-01   3.689353E+00   1.466788E+01   3.521372E-01   4.880082E+00   1.747093E+00   2.462736E-01   3.610214E+00   3.102879E+00   6.983523E-01   2.697675E+00   2.146494E+00   5.521477E-01   2.539529E+00   2.512063E+00   1.962547E+00   2.388568E+00   2.818773E-01   2.138060E-01   2.587495E-01   3.937092E+00   1.141224E+00   2.686812E+00   3.411853E+00   7.512685E+00   4.742368E+00   6.222133E+00   6.825092E-01   3.708745E+00   3.719956E+00   8.571589E-01   7.278309E-01   2.251955E+00   5.078246E+00   2.074314E+00   1.452838E+01   6.404626E+00   3.766680E+00   4.398559E+00   5.209508E+00   4.432117E+00   7.681464E+00   1.211833E+01   4.153432E+00   5.859312E+00   5.343406E-01   3.026848E+00   5.822132E+00   1.134211E+00   3.456876E+00   5.339077E+00   5.084361E-01   5.926446E-01   5.532831E+00   9.185748E-01   3.776558E+00   3.087738E+00   2.309321E-01   3.373245E+00   8.250064E+00   1.146926E+01   3.286845E+00   5.464129E+00   9.996099E-01   1.187453E+00   2.367731E+00   3.400964E-01   5.884050E-01   2.832938E+00   4.983827E-01   3.546742E+00   9.984434E+00   1.475707E+01   2.181291E+00   4.009796E+00   6.060119E-01   8.384435E-01   1.118973E+01   1.108790E+01   4.050503E+00   5.439095E+00   2.148897E-01   8.765637E-01   9.502814E+00   1.972632E-01   3.961350E+00   2.219552E+00   8.230805E-01   5.448070E-01   1.087035E+01   6.094366E+00   1.733728E+00   7.915080E+00   2.009292E+00   6.452884E-01   6.217170E+00   1.953851E+00   2.258767E+00   3.664787E+00   4.136429E+00   1.961275E+00   2.463235E+00   2.043886E-01   1.663127E+00   3.354039E+00   5.018970E+00   3.051990E+00   3.918933E-01   6.125624E-01   4.654806E+00   1.696847E+00   2.107320E-01   9.546831E-01   1.240916E+01   2.609044E-01   2.596463E+00   1.079405E+01   8.946627E+00   5.482153E-01   1.398561E+01   3.811838E-01   9.895844E-01   6.067957E+00   4.572423E-01   4.018681E+00   1.324877E+01   1.433697E+00   4.166430E+00   5.084805E+00   2.045622E-01   2.783164E+00   5.516208E+00   3.054485E+00   4.840293E+00   3.910143E+00   8.752444E-01   3.510047E+00   1.512472E+00   2.065371E-01   2.881511E+00   1.283645E+01   3.371598E-01   1.462770E+00   6.873523E+00   4.333133E+00   3.278821E+00   3.627295E+00   6.042535E-01   3.291439E+00   5.940661E-01   1.894001E-01   4.004345E+00   7.861041E+00   5.505270E+00   2.424822E+00   5.107957E+00   8.810792E-01   1.626672E+00   5.936487E+00   9.892827E-01   4.555700E+00   1.305760E+00   6.143588E-01   1.573815E+00   1.349256E+01   2.882541E-01   6.381611E-01   3.868425E+00   5.506714E-01   1.286740E+00   1.355608E+01   2.068253E+00   5.382270E-01   4.730619E+00   1.983624E-01   9.982082E-01   6.020516E+00   9.152160E-01   3.039373E+00   1.080954E+01   2.253531E-01   1.316062E+00   8.595948E+00   8.983392E+00   2.217284E+00   2.266116E+00   1.984402E-01   2.008786E+00   3.377313E+00   2.352562E+00   3.574731E+00   1.112298E+01   7.049892E+00   2.924056E+00   1.445267E+01   2.379060E+00   4.370745E+00   1.065229E+00   6.286631E-01   4.328363E+00   1.021034E+01   4.441031E-01   3.705177E+00   7.719570E+00   1.116566E+01   2.632908E+00   7.127601E+00   5.758445E+00   1.645042E+00   4.705805E+00   1.185069E+01   3.282489E+00   7.094136E+00   2.356080E+00   1.508161E+00   5.134449E+00   2.123153E-01   1.227385E+00   5.571914E+00   4.831747E-01   2.236158E+00   3.269232E+00   1.741691E+01   3.757421E+00   3.779755E+00   5.153580E-01   3.852001E+00   5.438282E+00   8.532872E-01   2.306365E+00   6.876540E+00   4.690024E+00   4.454016E+00   1.354761E+01   4.405833E-01   2.430090E+00   2.741058E+00   1.271354E+00   2.712477E+00   9.699153E+00   2.390765E-01   3.165274E-01   8.926836E+00   1.178040E+01   1.397403E+00   3.926515E+00   5.436529E-01   4.282734E+00   9.127604E-01   5.892807E-01   2.161758E-01   4.469666E+00   1.998229E-01   1.998870E-01   6.858395E+00   4.895391E+00   2.126149E+00   7.556149E-01   2.205560E-01   2.257828E-01   1.172623E+01   2.279763E+00   2.213849E+00   8.329436E+00   1.051235E+01   2.962697E+00   5.559629E+00   2.061339E-01   2.895129E+00   1.445200E+01   4.731304E-01   9.396973E-01   3.066943E+00   6.521831E+00   4.626879E+00   1.700891E+00   3.871751E-01   1.719846E+00   4.641758E+00   5.484523E-01   4.335758E+00   2.145510E+00   4.918791E-01   8.852720E-01   6.037778E+00   1.153511E+00   2.298625E+00   1.682278E+00   5.709945E-01   3.028369E+00   7.534099E+00   4.274620E-01   3.730909E+00   7.846136E+00   8.145134E+00   2.795401E+00   2.408617E+00   1.318909E+01   3.646173E+00   7.057263E+00   2.118335E+00   3.341750E+00   9.719031E+00   1.266355E+01   4.692609E+00   6.444293E+00   3.896793E+00   1.700946E+00   4.721579E+00   1.191849E+01   1.075848E+00   8.117711E+00   1.136897E+00   3.598564E+00   2.971598E+00   2.112911E-01   2.068003E-01   5.474797E+00   1.396915E+00   3.086604E+00   5.864709E+00   3.317017E+00   4.854646E+00   5.337111E+00   2.285538E+00   8.034672E-01   1.401530E+01   8.231914E+00   4.927560E+00   7.283245E+00   3.388586E+00   1.371187E+00   2.044240E-01   2.909769E-01   4.217338E+00   7.218200E+00   9.795376E-01   2.125653E+00   8.094269E+00   3.203724E-01   6.434395E-01   6.025865E+00   5.224060E+00   2.309926E+00   5.700751E+00   1.027589E+01   3.675251E+00   7.373833E+00   7.386328E-01   2.170304E-01   1.815894E+00   1.209530E+00   9.306147E-01   6.136284E+00   4.798344E-01   2.440149E+00   6.743316E+00   9.237041E+00   2.045298E+00   1.427924E+00   9.805287E-01   1.838215E+00   4.356542E+00   5.448589E-01   4.799243E+00   6.221732E+00   3.150642E+00   4.149328E+00   8.680332E+00   1.052438E+00   5.524149E-01   8.199998E+00   1.270626E+00   2.103054E-01   6.798399E+00   1.000464E+01   4.584163E+00   5.233047E+00   1.933290E+01   2.574201E+00   4.551640E+00   9.116010E-01   2.207704E+00   1.399207E+01   2.937998E-01   3.578442E+00   5.966010E+00   7.028161E+00   4.889760E+00   3.092891E+00   2.845240E-01   4.952038E+00   1.207518E+01   2.138815E+00  
[...]
<PointData Scalars="Diameter" Vectors="Velocity">
<DataArray type="Float32" Name="Diameter" format="ascii">
  4.000000E-01   4.000000E-01   4.000000E-01   4.000000E-01   4.000000E-01   4.000000E-01   4.000000E-01   4.000000E-01   4.000000E-01   4.000000E-01   4.000000E-01   4.000000E-01   4.000000E-01   4.000000E-01   4.000000E-01   4.000000E-01   4.000000E-01   4.000000E-01   4.000000E-01   4.000000E-01   4.000000E-01   4.000000E-01   4.000000E-01   4.000000E-01   4.000000E-01   4.000000E-01   4.000000E-01   4.000000E-01   4.000000E-01   4.000000E-01   4.000000E-01   4.000000E-01   4.000000E-01   4.000000E-01   4.000000E-01   4.000000E-01   4.000000E-01   4.000000E-01   4.000000E-01   4.000000E-01   4.000000E-01   4.000000E-01   4.000000E-01   4.000000E-01   4.000000E-01   4.000000E-01   4.000000E-01   4.000000E-01   4.000000E-01   4.000000E-01   4.000000E-01   4.000000E-01   4.000000E-01   4.000000E-01   4.000000E-01   4.000000E-01   4.000000E-01   4.000000E-01   4.000000E-01   4.000000E-01   4.000000E-01   4.000000E-01   4.000000E-01   4.000000E-01   4.000000E-01   4.000000E-01   4.000000E-01   4.000000E-01   4.000000E-01   4.000000E-01   4.000000E-01   4.000000E-01   4.000000E-01   4.000000E-01   4.000000E-01   4.000000E-01   4.000000E-01   4.000000E-01   4.000000E-01   4.000000E-01   4.000000E-01   4.000000E-01   4.000000E-01   4.000000E-01   4.000000E-01   4.000000E-01   4.000000E-01   4.000000E-01   4.000000E-01   4.000000E-01   4.000000E-01   4.000000E-01   4.000000E-01   4.000000E-01   4.000000E-01   4.000000E-01   4.000000E-01   4.000000E-01   4.000000E-01   4.000000E-01   4.000000E-01   4.000000E-01   4.000000E-01   4.000000E-01   4.000000E-01   4.000000E-01   4.000000E-01   4.000000E-01   4.000000E-01   4.000000E-01   4.000000E-01   4.000000E-01   4.000000E-01   4.000000E-01   4.000000E-01   4.000000E-01   4.000000E-01   4.000000E-01   4.000000E-01   4.000000E-01   4.000000E-01   4.000000E-01   4.000000E-01   4.000000E-01   4.000000E-01   4.000000E-01   4.000000E-01   4.000000E-01   4.000000E-01   4.000000E-01   4.000000E-01   4.000000E-01   4.000000E-01   4.000000E-01   4.000000E-01   4.000000E-01   4.000000E-01   4.000000E-01   4.000000E-01   4.000000E-01   4.000000E-01   4.000000E-01   4.000000E-01   4.000000E-01   4.000000E-01   4.000000E-01   4.000000E-01   4.000000E-01   4.000000E-01   4.000000E-01   4.000000E-01   4.000000E-01   4.000000E-01   4.000000E-01   4.000000E-01   4.000000E-01   4.000000E-01   4.000000E-01   4.000000E-01   4.000000E-01   4.000000E-01   4.000000E-01   4.000000E-01   4.000000E-01   4.000000E-01   4.000000E-01   4.000000E-01   4.000000E-01   4.000000E-01   4.000000E-01   4.000000E-01   4.000000E-01   4.000000E-01   4.000000E-01   4.000000E-01   4.000000E-01   4.000000E-01   4.000000E-01   4.000000E-01   4.000000E-01   4.000000E-01   4.000000E-01   4.000000E-01   4.000000E-01   4.000000E-01   4.000000E-01   4.000000E-01   4.000000E-01   4.000000E-01   4.000000E-01   4.000000E-01   4.000000E-01   4.000000E-01   4.000000E-01   4.000000E-01   4.000000E-01   4.000000E-01   4.000000E-01   4.000000E-01   4.000000E-01   4.000000E-01   4.000000E-01   4.000000E-01   4.000000E-01   4.000000E-01   4.000000E-01   4.000000E-01   4.000000E-01   4.000000E-01   4.000000E-01   4.000000E-01   4.000000E-01   4.000000E-01   4.000000E-01   4.000000E-01   4.000000E-01   4.000000E-01   4.000000E-01   4.000000E-01   4.000000E-01   4.000000E-01   4.000000E-01   4.000000E-01   4.000000E-01   4.000000E-01   4.000000E-01   4.000000E-01   4.000000E-01   4.000000E-01   4.000000E-01   4.000000E-01   4.000000E-01   4.000000E-01   4.000000E-01   4.000000E-01   4.000000E-01   4.000000E-01   4.000000E-01   4.000000E-01   4.000000E-01   4.000000E-01   4.000000E-01   4.000000E-01   4.000000E-01   4.000000E-01   4.000000E-01   4.000000E-01   4.000000E-01   4.000000E-01   4.000000E-01   4.000000E-01   4.000000E-01   4.000000E-01   4.000000E-01   4.000000E-01   4.000000E-01   4.000000E-01   4.000000E-01   4.000000E-01   4.000000E-01   4.000000E-01   4.000000E-01   4.000000E-01   4.000000E-01   4.000000E-01   4.000000E-01   4.000000E-01   4.000000E-01   4.000000E-01   4.000000E-01   4.000000E-01   4.000000E-01   4.000000E-01   4.000000E-01   4.000000E-01   4.000000E-01   4.000000E-01   4.000000E-01   4.000000E-01   4.000000E-01   4.000000E-01   4.000000E-01   4.000000E-01   4.000000E-01   4.000000E-01   4.000000E-01   4.000000E-01   4.000000E-01   4.000000E-01   4.000000E-01   4.000000E-01   4.000000E-01   4.000000E-01   4.000000E-01   4.000000E-01   4.000000E-01   4.000000E-01   4.000000E-01   4.000000E-01   4.000000E-01   4.000000E-01   4.000000E-01   4.000000E-01   4.000000E-01   4.000000E-01   4.000000E-01   4.000000E-01   4.000000E-01   4.000000E-01   4.000000E-01   4.000000E-01   4.000000E-01   4.000000E-01   4.000000E-01   4.000000E-01   4.000000E-01   4.000000E-01   4.000000E-01   4.000000E-01   4.000000E-01   4.000000E-01   4.000000E-01   4.000000E-01   4.000000E-01   4.000000E-01   4.000000E-01   4.000000E-01   4.000000E-01   4.000000E-01   4.000000E-01   4.000000E-01   4.000000E-01   4.000000E-01   4.000000E-01   4.000000E-01   4.000000E-01   4.000000E-01   4.000000E-01   4.000000E-01   4.000000E-01   4.000000E-01   4.000000E-01   4.000000E-01   4.000000E-01   4.000000E-01   4.000000E-01   4.000000E-01   4.000000E-01   4.000000E-01   4.000000E-01   4.000000E-01   4.000000E-01   4.000000E-01   4.000000E-01   4.000000E-01   4.000000E-01   4.000000E-01   4.000000E-01   4.000000E-01   4.000000E-01   4.000000E-01   4.000000E-01   4.000000E-01   4.000000E-01   4.000000E-01   4.000000E-01   4.000000E-01   4.000000E-01   4.000000E-01   4.000000E-01   4.000000E-01   4.000000E-01   4.000000E-01   4.000000E-01   4.000000E-01   4.000000E-01   4.000000E-01   4.000000E-01   4.000000E-01   4.000000E-01   4.000000E-01   4.000000E-01   4.000000E-01   4.000000E-01   4.000000E-01   4.000000E-01   4.000000E-01   4.000000E-01   4.000000E-01   4.000000E-01   4.000000E-01   4.000000E-01   4.000000E-01   4.000000E-01   4.000000E-01   4.000000E-01   4.000000E-01   4.000000E-01   4.000000E-01   4.000000E-01   4.000000E-01   4.000000E-01   4.000000E-01   4.000000E-01   4.000000E-01   4.000000E-01   4.000000E-01   4.000000E-01   4.000000E-01   4.000000E-01   4.000000E-01   4.000000E-01   4.000000E-01   4.000000E-01   4.000000E-01   4.000000E-01   4.000000E-01   4.000000E-01   4.000000E-01   4.000000E-01   4.000000E-01   4.000000E-01   4.000000E-01   4.000000E-01   4.000000E-01   4.000000E-01   4.000000E-01   4.000000E-01   4.000000E-01   4.000000E-01   4.000000E-01   4.000000E-01   4.000000E-01   4.000000E-01   4.000000E-01   4.000000E-01   4.000000E-01   4.000000E-01   4.000000E-01   4.000000E-01   4.000000E-01   4.000000E-01   4.000000E-01   4.000000E-01   4.000000E-01   4.000000E-01   4.000000E-01   4.000000E-01   4.000000E-01   4.000000E-01   4.000000E-01   4.000000E-01   4.000000E-01   4.000000E-01   4.000000E-01   4.000000E-01   4.000000E-01   4.000000E-01   4.000000E-01   4.000000E-01   4.000000E-01   4.000000E-01   4.000000E-01   4.000000E-01   4.000000E-01   4.000000E-01   4.000000E-01   4.000000E-01   4.000000E-01   4.000000E-01   4.000000E-01   4.000000E-01   4.000000E-01   4.000000E-01   4.000000E-01   4.000000E-01   4.000000E-01   4.000000E-01   4.000000E-01   4.000000E-01   4.000000E-01   4.000000E-01   4.000000E-01   4.000000E-01   4.000000E-01   4.000000E-01   4.000000E-01   4.000000E-01   4.000000E-01   4.000000E-01   4.000000E-01   4.000000E-01   4.000000E-01   4.000000E-01   4.000000E-01   4.000000E-01   4.000000E-01   4.000000E-01   4.000000E-01   4.000000E-01   4.000000E-01   4.000000E-01   4.000000E-01   4.000000E-01   4.000000E-01   4.000000E-01   4.000000E-01   4.000000E-01   4.000000E-01   4.000000E-01   4.000000E-01   4.000000E-01   4.000000E-01   4.000000E-01   4.000000E-01   4.000000E-01   4.000000E-01   4.000000E-01   4.000000E-01   4.000000E-01   4.000000E-01   4.000000E-01   4.000000E-01   4.000000E-01   4.000000E-01   4.000000E-01   4.000000E-01   4.000000E-01   4.000000E-01   4.000000E-01   4.000000E-01   4.000000E-01   4.000000E-01   4.000000E-01   4.000000E-01   4.000000E-01   4.000000E-01   4.000000E-01   4.000000E-01   4.000000E-01   4.000000E-01   4.000000E-01   4.000000E-01   4.000000E-01   4.000000E-01   4.000000E-01   4.000000E-01   4.000000E-01   4.000000E-01   4.000000E-01   4.000000E-01   4.000000E-01   4.000000E-01   4.000000E-01   4.000000E-01   4.000000E-01   4.000000E-01   4.000000E-01   4.000000E-01   4.000000E-01   4.000000E-01   4.000000E-01   4.000000E-01   4.000000E-01   4.000000E-01   4.000000E-01   4.000000E-01   4.000000E-01   4.000000E-01   4.000000E-01   4.000000E-01   4.000000E-01   4.000000E-01   4.000000E-01   4.000000E-01   4.000000E-01   4.000000E-01   4.000000E-01   4.000000E-01   4.000000E-01   4.000000E-01   4.000000E-01   4.000000E-01   4.000000E-01   4.000000E-01   4.000000E-01   4.000000E-01   4.000000E-01   4.000000E-01   4.000000E-01   4.000000E-01   4.000000E-01   4.000000E-01   4.000000E-01   4.000000E-01   4.000000E-01   4.000000E-01   4.000000E-01   4.000000E-01   4.000000E-01   4.000000E-01   4.000000E-01   4.000000E-01   4.000000E-01   4.000000E-01   4.000000E-01   4.000000E-01   4.000000E-01   4.000000E-01   4.000000E-01   4.000000E-01   4.000000E-01   4.000000E-01   4.000000E-01   4.000000E-01   4.000000E-01   4.000000E-01   4.000000E-01   4.000000E-01   4.000000E-01   4.000000E-01   4.000000E-01   4.000000E-01   4.000000E-01   4.000000E-01   4.000000E-01   4.000000E-01   4.000000E-01   4.000000E-01   4.000000E-01   4.000000E-01   4.000000E-01   4.000000E-01   4.000000E-01   4.000000E-01   4.000000E-01   4.000000E-01   4.000000E-01   4.000000E-01   4.000000E-01   4.000000E-01   4.000000E-01   4.000000E-01   4.000000E-01   4.000000E-01   4.000000E-01   4.000000E-01   4.000000E-01   4.000000E-01   4.000000E-01   4.000000E-01   4.000000E-01   4.000000E-01   4.000000E-01   4.000000E-01   4.000000E-01   4.000000E-01   4.000000E-01   4.000000E-01   4.000000E-01   4.000000E-01   4.000000E-01   4.000000E-01   4.000000E-01   4.000000E-01   4.000000E-01   4.000000E-01   4.000000E-01   4.000000E-01   4.000000E-01   4.000000E-01   4.000000E-01   4.000000E-01   4.000000E-01   4.000000E-01   4.000000E-01   4.000000E-01   4.000000E-01   4.000000E-01   4.000000E-01   4.000000E-01   4.000000E-01   4.000000E-01   4.000000E-01   4.000000E-01   4.000000E-01   4.000000E-01   4.000000E-01   4.000000E-01   4.000000E-01   4.000000E-01   4.000000E-01   4.000000E-01   4.000000E-01   4.000000E-01   4.000000E-01   4.000000E-01   4.000000E-01   4.000000E-01   4.000000E-01   4.000000E-01   4.000000E-01   4.000000E-01   4.000000E-01   4.000000E-01   4.000000E-01   4.000000E-01   4.000000E-01   4.000000E-01   4.000000E-01   4.000000E-01   4.000000E-01   4.000000E-01   4.000000E-01   4.000000E-01   4.000000E-01   4.000000E-01   4.000000E-01   4.000000E-01   4.000000E-01   4.000000E-01   4.000000E-01   4.000000E-01   4.000000E-01   4.000000E-01   4.000000E-01   4.000000E-01   4.000000E-01   4.000000E-01   4.000000E-01   4.000000E-01   4.000000E-01   4.000000E-01   4.000000E-01   4.000000E-01   4.000000E-01   4.000000E-01   4.000000E-01   4.000000E-01   4.000000E-01   4.000000E-01   4.000000E-01   4.000000E-01   4.000000E-01   4.000000E-01   4.000000E-01   4.000000E-01   4.000000E-01   4.000000E-01   4.000000E-01   4.000000E-01   4.000000E-01   4.000000E-01   4.000000E-01   4.000000E-01   4.000000E-01   4.000000E-01   4.000000E-01   4.000000E-01   4.000000E-01   4.000000E-01   4.000000E-01   4.000000E-01   4.000000E-01   4.000000E-01   4.000000E-01   4.000000E-01   4.000000E-01   4.000000E-01   4.000000E-01   4.000000E-01   4.000000E-01   4.000000E-01   4.000000E-01   4.000000E-01   4.000000E-01   4.000000E-01   4.000000E-01   4.000000E-01   4.000000E-01   4.000000E-01   4.000000E-01   4.000000E-01   4.000000E-01   4.000000E-01   4.000000E-01   4.000000E-01   4.000000E-01   4.000000E-01   4.000000E-01   4.000000E-01   4.000000E-01   4.000000E-01   4.000000E-01   4.000000E-01   4.000000E-01   4.000000E-01   4.000000E-01   4.000000E-01   4.000000E-01   4.000000E-01   4.000000E-01   4.000000E-01   4.000000E-01   4.000000E-01   4.000000E-01   4.000000E-01   4.000000E-01   4.000000E-01   4.000000E-01   4.000000E-01   4.000000E-01   4.000000E-01   4.000000E-01   4.000000E-01   4.000000E-01   4.000000E-01   4.000000E-01   4.000000E-01   4.000000E-01   4.000000E-01   4.000000E-01   4.000000E-01   4.000000E-01   4.000000E-01   4.000000E-01   4.000000E-01   4.000000E-01   4.000000E-01   4.000000E-01   4.000000E-01   4.000000E-01   4.000000E-01   4.000000E-01   4.000000E-01   4.000000E-01   4.000000E-01   4.000000E-01   4.000000E-01   4.000000E-01   4.000000E-01   4.000000E-01   4.000000E-01   4.000000E-01   4.000000E-01   4.000000E-01   4.000000E-01   4.000000E-01   4.000000E-01   4.000000E-01   4.000000E-01   4.000000E-01   4.000000E-01   4.000000E-01   4.000000E-01   4.000000E-01   4.000000E-01   4.000000E-01   4.000000E-01   4.000000E-01   4.000000E-01   4.000000E-01   4.000000E-01   4.000000E-01   4.000000E-01   4.000000E-01   4.000000E-01   4.000000E-01   4.000000E-01   4.000000E-01   4.000000E-01   4.000000E-01   4.000000E-01   4.000000E-01   4.000000E-01   4.000000E-01   4.000000E-01   4.000000E-01   4.000000E-01   4.000000E-01   4.000000E-01   4.000000E-01   4.000000E-01   4.000000E-01   4.000000E-01   4.000000E-01   4.000000E-01   4.000000E-01   4.000000E-01   4.000000E-01   4.000000E-01   4.000000E-01   4.000000E-01   4.000000E-01   4.000000E-01   4.000000E-01   4.000000E-01   4.000000E-01   4.000000E-01   4.000000E-01   4.000000E-01   4.000000E-01   4.000000E-01   4.000000E-01   4.000000E-01   4.000000E-01   4.000000E-01   4.000000E-01   4.000000E-01   4.000000E-01   4.000000E-01   4.000000E-01   4.000000E-01   4.000000E-01   4.000000E-01   4.000000E-01   4.000000E-01   4.000000E-01   4.000000E-01   4.000000E-01   4.000000E-01   4.000000E-01   4.000000E-01   4.000000E-01   4.000000E-01   4.000000E-01   4.000000E-01   4.000000E-01   4.000000E-01   4.000000E-01   4.000000E-01   4.000000E-01   4.000000E-01   4.000000E-01   4.000000E-01   4.000000E-01   4.000000E-01   4.000000E-01   4.000000E-01   4.000000E-01   4.000000E-01   4.000000E-01   4.000000E-01   4.000000E-01   4.000000E-01   4.000000E-01   4.000000E-01   4.000000E-01   4.000000E-01   4.000000E-01   4.000000E-01   4.000000E-01   4.000000E-01   4.000000E-01   4.000000E-01   4.000000E-01   4.000000E-01   4.000000E-01   4.000000E-01   4.000000E-01   4.000000E-01   4.000000E-01   4.000000E-01   4.000000E-01   4.000000E-01   4.000000E-01   4.000000E-01   4.000000E-01   4.000000E-01   4.000000E-01   4.000000E-01   4.000000E-01   4.000000E-01   4.000000E-01   4.000000E-01   4.000000E-01   4.000000E-01   4.000000E-01   4.000000E-01   4.000000E-01   4.000000E-01   4.000000E-01   4.000000E-01   4.000000E-01   4.000000E-01   4.000000E-01   4.000000E-01   4.000000E-01   4.000000E-01   4.000000E-01   4.000000E-01   4.000000E-01   4.000000E-01   4.000000E-01   4.000000E-01   4.000000E-01   4.000000E-01   4.000000E-01   4.000000E-01   4.000000E-01   4.000000E-01   4.000000E-01   4.000000E-01   4.000000E-01   4.000000E-01   4.000000E-01   4.000000E-01   4.000000E-01   4.000000E-01   4.000000E-01   4.000000E-01   4.000000E-01   4.000000E-01   4.000000E-01   4.000000E-01   4.000000E-01   4.000000E-01   4.000000E-01   4.000000E-01   4.000000E-01   4.000000E-01   4.000000E-01   4.000000E-01   4.000000E-01   4.000000E-01   4.000000E-01   4.000000E-01   4.000000E-01   4.000000E-01   4.000000E-01   4.000000E-01   4.000000E-01   4.000000E-01   4.000000E-01   4.000000E-01   4.000000E-01   4.000000E-01   4.000000E-01   4.000000E-01   4.000000E-01   4.000000E-01   4.000000E-01   4.000000E-01   4.000000E-01   4.000000E-01   4.000000E-01   4.000000E-01   4.000000E-01   4.000000E-01   4.000000E-01   4.000000E-01   4.000000E-01   4.000000E-01   4.000000E-01   4.000000E-01   4.000000E-01   4.000000E-01   4.000000E-01   4.000000E-01   4.000000E-01   4.000000E-01   4.000000E-01   4.000000E-01   4.000000E-01   4.000000E-01   4.000000E-01   4.000000E-01   4.000000E-01   4.000000E-01   4.000000E-01   4.000000E-01   4.000000E-01   4.000000E-01   4.000000E-01   4.000000E-01   4.000000E-01   4.000000E-01   4.000000E-01   4.000000E-01   4.000000E-01   4.000000E-01   4.000000E-01   4.000000E-01   4.000000E-01   4.000000E-01   4.000000E-01   4.000000E-01   4.000000E-01   4.000000E-01   4.000000E-01   4.000000E-01   4.000000E-01   4.000000E-01   4.000000E-01   4.000000E-01   4.000000E-01   4.000000E-01   4.000000E-01   4.000000E-01   4.000000E-01   4.000000E-01   4.000000E-01   4.000000E-01   4.000000E-01   4.000000E-01   4.000000E-01   4.000000E-01   4.000000E-01   4.000000E-01   4.000000E-01   4.000000E-01   4.000000E-01   4.000000E-01   4.000000E-01   4.000000E-01   4.000000E-01   4.000000E-01   4.000000E-01   4.000000E-01   4.000000E-01   4.000000E-01   4.000000E-01   4.000000E-01   4.000000E-01   4.000000E-01   4.000000E-01   4.000000E-01   4.000000E-01   4.000000E-01   4.000000E-01   4.000000E-01   4.000000E-01   4.000000E-01   4.000000E-01   4.000000E-01   4.000000E-01   4.000000E-01   4.000000E-01   4.000000E-01   4.000000E-01   4.000000E-01   4.000000E-01   4.000000E-01   4.000000E-01   4.000000E-01   4.000000E-01   4.000000E-01   4.000000E-01   4.000000E-01   4.000000E-01   4.000000E-01   4.000000E-01   4.000000E-01   4.000000E-01   4.000000E-01   4.000000E-01   4.000000E-01   4.000000E-01   4.000000E-01   4.000000E-01   4.000000E-01   4.000000E-01   4.000000E-01   4.000000E-01   4.000000E-01   4.000000E-01   4.000000E-01   4.000000E-01   4.000000E-01   4.000000E-01   4.000000E-01   4.000000E-01   4.000000E-01   4.000000E-01   4.000000E-01   4.000000E-01   4.000000E-01   4.000000E-01   4.000000E-01   4.000000E-01   4.000000E-01   4.000000E-01   4.000000E-01   4.000000E-01   4.000000E-01   4.000000E-01   4.000000E-01   4.000000E-01   4.000000E-01   4.000000E-01   4.000000E-01   4.000000E-01   4.000000E-01   4.000000E-01   4.000000E-01   4.000000E-01   4.000000E-01   4.000000E-01   4.000000E-01   4.000000E-01   4.000000E-01   4.000000E-01   4.000000E-01   4.000000E-01   4.000000E-01   4.000000E-01   4.000000E-01   4.000000E-01   4.000000E-01   4.000000E-01   4.000000E-01   4.000000E-01   4.000000E-01   4.000000E-01   4.000000E-01   4.000000E-01   4.000000E-01   4.000000E-01   4.000000E-01   4.000000E-01   4.000000E-01   4.000000E-01   4.000000E-01   4.000000E-01   4.000000E-01   4.000000E-01   4.000000E-01   4.000000E-01   4.000000E-01   4.000000E-01   4.000000E-01   4.000000E-01   4.000000E-01   4.000000E-01   4.000000E-01   4.000000E-01   4.000000E-01   4.000000E-01   4.000000E-01   4.000000E-01   4.000000E-01   4.000000E-01   4.000000E-01   4.000000E-01   4.000000E-01   4.000000E-01   4.000000E-01   4.000000E-01   4.000000E-01   4.000000E-01   4.000000E-01   4.000000E-01   4.000000E-01   4.000000E-01   4.000000E-01   4.000000E-01   4.000000E-01   4.000000E-01   4.000000E-01   4.000000E-01   4.000000E-01   4.000000E-01   4.000000E-01   4.000000E-01   4.000000E-01   4.000000E-01   4.000000E-01   4.000000E-01   4.000000E-01   4.000000E-01   4.000000E-01   4.000000E-01   4.000000E-01   4.000000E-01   4.000000E-01   4.000000E-01   4.000000E-01   4.000000E-01   4.000000E-01   4.000000E-01   4.000000E-01   4.000000E-01   4.000000E-01   4.000000E-01   4.000000E-01   4.000000E-01   4.000000E-01   4.000000E-01   4.000000E-01   4.000000E-01   4.000000E-01   4.000000E-01   4.000000E-01   4.000000E-01   4.000000E-01   4.000000E-01   4.000000E-01   4.000000E-01   4.000000E-01   4.000000E-01   4.000000E-01   4.000000E-01   4.000000E-01   4.000000E-01   4.000000E-01   4.000000E-01   4.000000E-01   4.000000E-01   4.000000E-01   4.000000E-01   4.000000E-01   4.000000E-01   4.000000E-01   4.000000E-01   4.000000E-01   4.000000E-01   4.000000E-01   4.000000E-01   4.000000E-01   4.000000E-01   4.000000E-01   4.000000E-01   4.000000E-01   4.000000E-01   4.000000E-01   4.000000E-01   