<?xml version="1.0"?>
<!-- Time =  2.7007176260279473E+00s -->
<VTKFile type="PolyData" version="0.1" byte_order="LittleEndian">
<PolyData>
<Piece NumberOfPoints="0000002400" NumberOfVerts="0" NumberOfLines="0" NumberOfStrips="0" NumberOfPolys="0">
<Points>
<DataArray type="Float32" Name="Position" NumberOfComponents="3" format="ascii">
  2.771080E+00   1.980808E-01   2.264840E-01   1.439586E+01   2.221488E+00   4.102957E+00   5.151146E+00   6.066608E+00   4.100458E+00   2.360074E+00   2.235356E-01   2.280686E+00   7.586393E+00   1.384131E+01   2.366946E+00   9.999043E+00   2.539351E+01   4.682238E+00   8.614853E+00   2.189337E+00   1.982864E+00   8.873800E+00   2.599464E-01   2.737535E+00   1.020715E+01   3.630360E+00   1.830086E+00   8.814995E+00   1.954259E-01   2.102453E+00   2.109962E+00   1.239389E+01   3.939294E+00   2.357244E+00   6.091093E-01   4.831337E+00   5.278036E+00   4.683312E+00   1.503974E+00   1.042953E+01   3.754153E-01   3.948746E+00   4.855965E+00   2.037729E-01   6.003898E-01   7.287728E+00   9.220779E+00   4.402319E+00   1.389929E+01   1.064600E+00   2.372608E+00   9.753057E+00   5.545760E-01   1.062398E+00   4.617116E+00   2.039593E-01   3.012373E+00   1.443941E+01   1.706106E+00   3.345268E+00   7.944539E+00   3.604001E+00   4.745027E+00   7.707460E+00   9.370355E+00   4.595643E+00   4.822826E+00   1.324298E+00   2.408308E+00   6.398369E+00   1.250374E+00   4.575715E+00   5.864702E+00   5.744206E-01   1.129415E+00   5.147767E+00   1.988339E-01   4.370394E+00   9.952950E+00   2.170555E-01   1.496002E+00   4.408423E+00   2.042194E-01   4.363090E+00   1.270649E+01   2.069991E+00   3.122588E+00   5.993246E+00   1.212149E+00   1.088251E+00   6.449380E+00   2.085811E-01   1.716610E+00   6.812109E+00   1.156990E+01   1.917997E+00   1.147906E+01   2.412426E+01   4.457303E+00   4.647858E+00   2.058347E-01   9.693342E-01   3.698447E+00   7.957048E-01   2.683113E+00   6.877085E+00   3.776319E+00   4.644135E+00   1.127365E+01   5.843989E+00   4.009069E+00   6.562452E+00   2.241807E-01   4.185737E+00   6.540781E+00   7.791576E-01   2.156288E-01   9.542850E+00   4.342312E+00   3.663940E+00   9.040889E+00   2.276507E-01   3.685716E+00   6.932931E+00   6.554103E-01   2.891366E-01   8.202627E+00   3.536323E+00   2.413351E+00   1.213968E+00   7.114482E-01   6.302941E-01   2.260453E+00   1.818171E+00   6.458986E-01   4.931276E+00   5.834351E-01   2.506444E-01   3.474763E+00   4.164925E-01   4.453535E+00   8.881880E+00   1.771743E+01   4.980040E+00   1.356345E+01   7.058638E-01   1.647618E+00   4.373856E+00   5.106171E-01   2.430156E+00   4.614873E+00   5.143014E+00   6.292042E-01   4.823502E+00   2.309652E-01   1.665386E+00   6.187643E+00   6.015535E+00   3.980118E+00   8.680130E+00   3.231418E+00   2.751841E+00   7.455056E+00   6.951823E-01   2.080391E+00   1.016085E+01   1.002348E+01   2.120526E+00   4.984508E+00   5.965292E-01   1.951883E+00   1.139324E+01   2.471952E+00   3.532750E+00   4.285274E+00   6.569433E-01   2.089452E-01   1.191928E+01   1.040466E+01   3.463223E+00   1.077689E+01   1.001227E+01   2.434037E+00   6.594324E+00   4.823286E+00   3.553007E+00   4.578491E+00   7.460095E-01   2.016811E+00   5.286572E+00   6.303627E-01   2.332142E+00   2.941494E+00   6.452106E-01   2.117350E-01   9.236677E+00   3.217740E+00   5.709791E-01   5.504928E+00   6.190709E-01   4.481445E+00   1.459905E+00   1.593902E+00   2.678054E-01   2.725156E+00   1.094844E+00   3.288672E-01   9.406258E+00   1.971443E-01   3.393425E+00   5.954914E+00   2.132290E-01   1.316789E+00   5.127804E+00   4.828964E-01   4.706228E+00   6.630919E+00   7.269193E-01   4.897686E+00   7.300538E+00   1.915112E+00   4.807513E+00   1.238013E+01   1.207777E+00   2.031401E+00   5.528858E+00   3.935333E+00   3.399436E+00   1.442028E+01   2.775643E-01   2.902069E+00   8.435003E+00   1.047065E+00   3.313988E+00   2.842206E+00   1.803876E+01   1.151595E+00   9.666097E+00   2.284912E+01   4.044045E+00   1.605008E+00   7.940899E+00   4.439048E+00   6.095464E+00   6.597764E+00   4.907115E+00   8.518238E+00   1.258199E+01   1.608977E+00   2.098734E+00   4.276171E+00   2.086873E+00   2.536715E+00   1.583282E+01   1.331813E+00   7.526200E+00   3.691679E+00   2.158545E+00   2.708515E-01   7.444602E-01   2.398941E+00   5.700708E+00   4.967507E-01   2.364501E+00   6.932775E+00   1.158662E+00   4.464517E+00   7.893958E-01   1.218553E+01   2.524699E+00   4.994209E-01   1.221432E+00   3.765291E-01   1.190168E+01   1.442465E+00   9.640152E-01   7.634970E+00   5.039193E+00   1.705828E+00   5.939711E+00   5.789651E+00   1.359612E+00   6.999318E+00   1.774624E+00   3.246502E-01   6.406947E+00   5.830612E+00   2.943671E+00   9.963094E+00   1.479671E+00   8.499931E-01   9.314512E+00   1.094617E+01   5.807523E-01   1.449047E+01   2.850336E+00   4.693838E+00   5.795794E+00   6.518388E+00   1.808052E+00   1.990901E-01   2.189201E-01   4.867508E+00   6.213362E+00   1.851255E+00   1.523878E+00   1.270556E+00   3.677100E-01   4.507477E+00   1.263937E+01   1.299140E+01   4.972499E+00   8.079099E+00   8.514242E+00   1.476212E+00   3.463938E+00   1.738958E+01   2.662626E+00   2.879115E+00   9.561710E+00   2.411800E-01   4.138968E+00   5.548915E-01   2.839978E+00   3.217180E+00   5.957475E-01   3.598686E+00   1.563562E+00   1.030826E+00   9.190540E-01   3.978371E+00   2.128725E-01   6.646571E-01   1.816187E+00   2.060805E-01   6.385618E-01   1.339725E+01   7.085460E+00   4.893386E+00   7.000095E+00   6.453868E+00   3.745798E+00   6.694259E+00   2.306271E+01   3.274725E+00   1.218391E+01   2.399278E-01   2.099867E+00   5.055180E+00   3.551517E+00   2.477241E-01   1.402796E+01   1.444585E+01   4.850372E+00   7.857621E-01   6.431202E-01   2.067227E+00   6.833072E+00   1.280416E+00   2.219934E+00   4.228312E+00   2.553804E-01   3.111859E+00   4.896039E-01   1.991580E-01   1.499209E+00   9.530799E+00   2.280678E-01   6.966349E-01   9.006537E+00   9.937193E-01   3.627336E+00   9.832702E-01   1.378808E+00   4.354357E+00   1.704347E+00   5.668988E-01   3.244257E+00   5.788983E+00   1.377892E+00   1.388496E+00   7.086580E+00   1.786314E+00   1.048538E+00   6.411833E+00   1.259362E+00   1.228024E+00   1.075817E+01   1.229219E+01   4.681339E+00   1.876130E+00   5.415407E-01   3.714617E+00   4.100597E+00   5.016270E+00   3.360693E+00   8.922898E-01   9.771923E+00   3.084781E+00   6.785133E+00   1.139543E+00   2.990805E-01   5.880755E+00   8.213310E-01   3.372774E+00   5.810894E+00   5.676832E-01   1.890353E+00   6.294114E+00   3.033107E+00   9.392880E-01   1.960831E+00   2.281465E-01   1.252724E+00   4.319092E+00   2.056401E+01   3.160701E+00   1.459904E+01   7.957657E+00   3.627504E+00   2.537104E+00   7.060787E-01   1.867047E+00   1.501847E+00   1.049813E+01   7.257672E-01   1.100192E+01   8.441281E+00   3.385716E+00   1.236500E+01   9.178265E-01   1.683097E+00   3.067656E+00   1.994769E-01   2.453676E+00   7.535188E+00   1.150083E+01   4.501050E+00   7.755187E+00   3.113480E+00   2.034506E+00   7.247612E+00   1.488254E+00   3.287608E+00   1.084665E+01   6.086320E+00   2.931497E+00   3.017720E+00   1.583047E+00   2.136831E+00   7.892531E+00   7.120390E+00   4.117282E+00   4.085061E+00   1.846191E+01   4.919517E+00   4.616951E+00   1.991472E-01   3.814114E+00   1.487350E+00   2.626442E-01   1.473015E+00   1.191539E+01   1.093277E+01   1.490994E+00   6.134406E+00   6.076416E-01   2.129145E+00   6.649387E+00   5.348670E-01   3.720190E+00   4.285745E+00   2.010381E-01   1.839279E+00   1.241352E+01   4.714259E-01   4.943520E+00   7.652429E+00   1.507517E+00   1.913251E+00   7.018355E+00   4.409712E+00   3.867737E+00   7.515320E+00   1.595926E+00   4.307570E+00   1.103015E+01   1.419405E+01   2.502932E+00   4.624478E+00   2.309117E+01   1.306504E+00   8.535311E-01   8.855670E-01   2.210926E-01   1.705307E+00   1.991630E-01   2.380283E-01   2.711041E+00   2.005594E-01   1.722608E+00   2.085702E-01   6.107678E-01   4.587833E-01   1.161758E+01   5.254193E+00   3.941921E+00   1.279721E+01   7.626169E-01   6.257512E-01   1.835072E+00   2.073800E-01   2.624855E+00   5.670300E+00   5.565013E-01   3.582722E+00   9.207013E+00   3.830367E+00   4.882660E+00   1.261696E+01   5.327829E-01   2.449432E+00   5.640894E+00   5.383434E-01   7.629834E-01   7.330948E+00   4.689898E+00   1.195742E+00   8.198998E+00   1.514734E+01   1.045544E+00   4.422142E+00   7.361838E-01   3.082394E+00   6.582875E+00   4.364836E-01   9.789632E-01   4.058263E+00   8.208353E+00   4.443395E+00   6.205791E+00   9.559406E-01   4.113230E+00   8.260448E+00   3.966923E+00   3.784989E+00   1.117925E+01   7.851662E+00   8.306944E-01   1.045405E+00   2.266005E-01   5.760235E-01   2.900091E+00   7.269142E-01   4.923008E+00   6.721919E+00   3.639530E+00   1.722102E+00   6.258148E+00   2.104979E-01   5.505446E-01   1.148782E+01   8.002833E+00   3.609743E+00   5.098878E+00   9.690531E-01   2.072306E+00   2.560755E-01   6.195521E-01   3.788502E+00   1.241360E+01   3.565377E-01   2.943148E+00   1.490751E+00   1.033307E+00   4.206235E+00   2.190609E+00   1.124775E+00   3.318121E+00   3.296191E+00   2.673221E-01   2.394310E-01   1.174352E+01   2.291312E-01   3.499288E-01   5.278158E+00   7.872158E-01   1.756099E+00   8.687395E+00   3.014425E+00   1.554830E+00   1.103166E+01   1.593517E+01   1.613304E+00   5.382236E+00   6.241287E+00   4.881222E+00   1.390441E+01   9.315879E-01   3.217354E+00   6.131357E+00   2.029720E-01   2.738305E+00   5.699731E+00   2.111645E-01   2.644703E+00   1.660844E+00   1.160182E+00   3.521938E+00   4.538814E+00   1.378557E+00   2.747266E+00   1.110332E+01   3.563693E-01   3.059199E+00   5.004048E-01   2.303622E-01   4.464114E+00   6.171827E+00   5.656815E-01   3.163790E-01   4.772661E+00   2.003843E-01   4.601211E+00   7.718109E-01   1.292281E+00   2.063673E+00   1.032417E+01   1.783739E-01   3.177563E+00   4.882529E+00   3.710964E+00   4.892735E+00   4.763385E+00   1.536347E+00   3.929436E+00   1.459507E+01   1.223951E+00   1.384825E+00   5.820485E+00   9.139106E-01   3.871107E+00   6.520838E+00   1.100541E+00  
[...]
<PointData Scalars="Diameter" Vectors="Velocity">
<DataArray type="Float32" Name="Diameter" format="ascii">
  4.000000E-01   4.000000E-01   4.000000E-01   4.000000E-01   4.000000E-01   4.000000E-01   4.000000E-01   4.000000E-01   4.000000E-01   4.000000E-01   4.000000E-01   4.000000E-01   4.000000E-01   4.000000E-01   4.000000E-01   4.000000E-01   4.000000E-01   4.000000E-01   4.000000E-01   4.000000E-01   4.000000E-01   4.000000E-01   4.000000E-01   4.000000E-01   4.000000E-01   4.000000E-01   4.000000E-01   4.000000E-01   4.000000E-01   4.000000E-01   4.000000E-01   4.000000E-01   4.000000E-01   4.000000E-01   4.000000E-01   4.000000E-01   4.000000E-01   4.000000E-01   4.000000E-01   4.000000E-01   4.000000E-01   4.000000E-01   4.000000E-01   4.000000E-01   4.000000E-01   4.000000E-01   4.000000E-01   4.000000E-01   4.000000E-01   4.000000E-01   4.000000E-01   4.000000E-01   4.000000E-01   4.000000E-01   4.000000E-01   4.000000E-01   4.000000E-01   4.000000E-01   4.000000E-01   4.000000E-01   4.000000E-01   4.000000E-01   4.000000E-01   4.000000E-01   4.000000E-01   4.000000E-01   4.000000E-01   4.000000E-01   4.000000E-01   4.000000E-01   4.000000E-01   4.000000E-01   4.000000E-01   4.000000E-01   4.000000E-01   4.000000E-01   4.000000E-01   4.000000E-01   4.000000E-01   4.000000E-01   4.000000E-01   4.000000E-01   4.000000E-01   4.000000E-01   4.000000E-01   4.000000E-01   4.000000E-01   4.000000E-01   4.000000E-01   4.000000E-01   4.000000E-01   4.000000E-01   4.000000E-01   4.000000E-01   4.000000E-01   4.000000E-01   4.000000E-01   4.000000E-01   4.000000E-01   4.000000E-01   4.000000E-01   4.000000E-01   4.000000E-01   4.000000E-01   4.000000E-01   4.000000E-01   4.000000E-01   4.000000E-01   4.000000E-01   4.000000E-01   4.000000E-01   4.000000E-01   4.000000E-01   4.000000E-01   4.000000E-01   4.000000E-01   4.000000E-01   4.000000E-01   4.000000E-01   4.000000E-01   4.000000E-01   4.000000E-01   4.000000E-01   4.000000E-01   4.000000E-01   4.000000E-01   4.000000E-01   4.000000E-01   4.000000E-01   4.000000E-01   4.000000E-01   4.000000E-01   4.000000E-01   4.000000E-01   4.000000E-01   4.000000E-01   4.000000E-01   4.000000E-01   4.000000E-01   4.000000E-01   4.000000E-01   4.000000E-01   4.000000E-01   4.000000E-01   4.000000E-01   4.000000E-01   4.000000E-01   4.000000E-01   4.000000E-01   4.000000E-01   4.000000E-01   4.000000E-01   4.000000E-01   4.000000E-01   4.000000E-01   4.000000E-01   4.000000E-01   4.000000E-01   4.000000E-01   4.000000E-01   4.000000E-01   4.000000E-01   4.000000E-01   4.000000E-01   4.000000E-01   4.000000E-01   4.000000E-01   4.000000E-01   4.000000E-01   4.000000E-01   4.000000E-01   4.000000E-01   4.000000E-01   4.000000E-01   4.000000E-01   4.000000E-01   4.000000E-01   4.000000E-01   4.000000E-01   4.000000E-01   4.000000E-01   4.000000E-01   4.000000E-01   4.000000E-01   4.000000E-01   4.000000E-01   4.000000E-01   4.000000E-01   4.000000E-01   4.000000E-01   4.000000E-01   4.000000E-01   4.000000E-01   4.000000E-01   4.000000E-01   4.000000E-01   4.000000E-01   4.000000E-01   4.000000E-01   4.000000E-01   4.000000E-01   4.000000E-01   4.000000E-01   4.000000E-01   4.000000E-01   4.000000E-01   4.000000E-01   4.000000E-01   4.000000E-01   4.000000E-01   4.000000E-01   4.000000E-01   4.000000E-01   4.000000E-01   4.000000E-01   4.000000E-01   4.000000E-01   4.000000E-01   4.000000E-01   4.000000E-01   4.000000E-01   4.000000E-01   4.000000E-01   4.000000E-01   4.000000E-01   4.000000E-01   4.000000E-01   4.000000E-01   4.000000E-01   4.000000E-01   4.000000E-01   4.000000E-01   4.000000E-01   4.000000E-01   4.000000E-01   4.000000E-01   4.000000E-01   4.000000E-01   4.000000E-01   4.000000E-01   4.000000E-01   4.000000E-01   4.000000E-01   4.000000E-01   4.000000E-01   4.000000E-01   4.000000E-01   4.000000E-01   4.000000E-01   4.000000E-01   4.000000E-01   4.000000E-01   4.000000E-01   4.000000E-01   4.000000E-01   4.000000E-01   4.000000E-01   4.000000E-01   4.000000E-01   4.000000E-01   4.000000E-01   4.000000E-01   4.000000E-01   4.000000E-01   4.000000E-01   4.000000E-01   4.000000E-01   4.000000E-01   4.000000E-01   4.000000E-01   4.000000E-01   4.000000E-01   4.000000E-01   4.000000E-01   4.000000E-01   4.000000E-01   4.000000E-01   4.000000E-01   4.000000E-01   4.000000E-01   4.000000E-01   4.000000E-01   4.000000E-01   4.000000E-01   4.000000E-01   4.000000E-01   4.000000E-01   4.000000E-01   4.000000E-01   4.000000E-01   4.000000E-01   4.000000E-01   4.000000E-01   4.000000E-01   4.000000E-01   4.000000E-01   4.000000E-01   4.000000E-01   4.000000E-01   4.000000E-01   4.000000E-01   4.000000E-01   4.000000E-01   4.000000E-01   4.000000E-01   4.000000E-01   4.000000E-01   4.000000E-01   4.000000E-01   4.000000E-01   4.000000E-01   4.000000E-01   4.000000E-01   4.000000E-01   4.000000E-01   4.000000E-01   4.000000E-01   4.000000E-01   4.000000E-01   4.000000E-01   4.000000E-01   4.000000E-01   4.000000E-01   4.000000E-01   4.000000E-01   4.000000E-01   4.000000E-01   4.000000E-01   4.000000E-01   4.000000E-01   4.000000E-01   4.000000E-01   4.000000E-01   4.000000E-01   4.000000E-01   4.000000E-01   4.000000E-01   4.000000E-01   4.000000E-01   4.000000E-01   4.000000E-01   4.000000E-01   4.000000E-01   4.000000E-01   4.000000E-01   4.000000E-01   4.000000E-01   4.000000E-01   4.000000E-01   4.000000E-01   4.000000E-01   4.000000E-01   4.000000E-01   4.000000E-01   4.000000E-01   4.000000E-01   4.000000E-01   4.000000E-01   4.000000E-01   4.000000E-01   4.000000E-01   4.000000E-01   4.000000E-01   4.000000E-01   4.000000E-01   4.000000E-01   4.000000E-01   4.000000E-01   4.000000E-01   4.000000E-01   4.000000E-01   4.000000E-01   4.000000E-01   4.000000E-01   4.000000E-01   4.000000E-01   4.000000E-01   4.000000E-01   4.000000E-01   4.000000E-01   4.000000E-01   4.000000E-01   4.000000E-01   4.000000E-01   4.000000E-01   4.000000E-01   4.000000E-01   4.000000E-01   4.000000E-01   4.000000E-01   4.000000E-01   4.000000E-01   4.000000E-01   4.000000E-01   4.000000E-01   4.000000E-01   4.000000E-01   4.000000E-01   4.000000E-01   4.000000E-01   4.000000E-01   4.000000E-01   4.000000E-01   4.000000E-01   4.000000E-01   4.000000E-01   4.000000E-01   4.000000E-01   4.000000E-01   4.000000E-01   4.000000E-01   4.000000E-01   4.000000E-01   4.000000E-01   4.000000E-01   4.000000E-01   4.000000E-01   4.000000E-01   4.000000E-01   4.000000E-01   4.000000E-01   4.000000E-01   4.000000E-01   4.000000E-01   4.000000E-01   4.000000E-01   4.000000E-01   4.000000E-01   4.000000E-01   4.000000E-01   4.000000E-01   4.000000E-01   4.000000E-01   4.000000E-01   4.000000E-01   4.000000E-01   4.000000E-01   4.000000E-01   4.000000E-01   4.000000E-01   4.000000E-01   4.000000E-01   4.000000E-01   4.000000E-01   4.000000E-01   4.000000E-01   4.000000E-01   4.000000E-01   4.000000E-01   4.000000E-01   4.000000E-01   4.000000E-01   4.000000E-01   4.000000E-01   4.000000E-01   4.000000E-01   4.000000E-01   4.000000E-01   4.000000E-01   4.000000E-01   4.000000E-01   4.000000E-01   4.000000E-01   4.000000E-01   4.000000E-01   4.000000E-01   4.000000E-01   4.000000E-01   4.000000E-01   4.000000E-01   4.000000E-01   4.000000E-01   4.000000E-01   4.000000E-01   4.000000E-01   4.000000E-01   4.000000E-01   4.000000E-01   4.000000E-01   4.000000E-01   4.000000E-01   4.000000E-01   4.000000E-01   4.000000E-01   4.000000E-01   4.000000E-01   4.000000E-01   4.000000E-01   4.000000E-01   4.000000E-01   4.000000E-01   4.000000E-01   4.000000E-01   4.000000E-01   4.000000E-01   4.000000E-01   4.000000E-01   4.000000E-01   4.000000E-01   4.000000E-01   4.000000E-01   4.000000E-01   4.000000E-01   4.000000E-01   4.000000E-01   4.000000E-01   4.000000E-01   4.000000E-01   4.000000E-01   4.000000E-01   4.000000E-01   4.000000E-01   4.000000E-01   4.000000E-01   4.000000E-01   4.000000E-01   4.000000E-01   4.000000E-01   4.000000E-01   4.000000E-01   4.000000E-01   4.000000E-01   4.000000E-01   4.000000E-01   4.000000E-01   4.000000E-01   4.000000E-01   4.000000E-01   4.000000E-01   4.000000E-01   4.000000E-01   4.000000E-01   4.000000E-01   4.000000E-01   4.000000E-01   4.000000E-01   4.000000E-01   4.000000E-01   4.000000E-01   4.000000E-01   4.000000E-01   4.000000E-01   4.000000E-01   4.000000E-01   4.000000E-01   4.000000E-01   4.000000E-01   4.000000E-01   4.000000E-01   4.000000E-01   4.000000E-01   4.000000E-01   4.000000E-01   4.000000E-01   4.000000E-01   4.000000E-01   4.000000E-01   4.000000E-01   4.000000E-01   4.000000E-01   4.000000E-01   4.000000E-01   4.000000E-01   4.000000E-01   4.000000E-01   4.000000E-01   4.000000E-01   4.000000E-01   4.000000E-01   4.000000E-01   4.000000E-01   4.000000E-01   4.000000E-01   4.000000E-01   4.000000E-01   4.000000E-01   4.000000E-01   4.000000E-01   4.000000E-01   4.000000E-01   4.000000E-01   4.000000E-01   4.000000E-01   4.000000E-01   4.000000E-01   4.000000E-01   4.000000E-01   4.000000E-01   4.000000E-01   4.000000E-01   4.000000E-01   4.000000E-01   4.000000E-01   4.000000E-01   4.000000E-01   4.000000E-01   4.000000E-01   4.000000E-01   4.000000E-01   4.000000E-01   4.000000E-01   4.000000E-01   4.000000E-01   4.000000E-01   4.000000E-01   4.000000E-01   4.000000E-01   4.000000E-01   4.000000E-01   4.000000E-01   4.000000E-01   4.000000E-01   4.000000E-01   4.000000E-01   4.000000E-01   4.000000E-01   4.000000E-01   4.000000E-01   4.000000E-01   4.000000E-01   4.000000E-01   4.000000E-01   4.000000E-01   4.000000E-01   4.000000E-01   4.000000E-01   4.000000E-01   4.000000E-01   4.000000E-01   4.000000E-01   4.000000E-01   4.000000E-01   4.000000E-01   4.000000E-01   4.000000E-01   4.000000E-01   4.000000E-01   4.000000E-01   4.000000E-01   4.000000E-01   4.000000E-01   4.000000E-01   4.000000E-01   4.000000E-01   4.000000E-01   4.000000E-01   4.000000E-01   4.000000E-01   4.000000E-01   4.000000E-01   4.000000E-01   4.000000E-01   4.000000E-01   4.000000E-01   4.000000E-01   4.000000E-01   4.000000E-01   4.000000E-01   4.000000E-01   4.000000E-01   4.000000E-01   4.000000E-01   4.000000E-01   4.000000E-01   4.000000E-01   4.000000E-01   4.000000E-01   4.000000E-01   4.000000E-01   4.000000E-01   4.000000E-01   4.000000E-01   4.000000E-01   4.000000E-01   4.000000E-01   4.000000E-01   4.000000E-01   4.000000E-01   4.000000E-01   4.000000E-01   4.000000E-01   4.000000E-01   4.000000E-01   4.000000E-01   4.000000E-01   4.000000E-01   4.000000E-01   4.000000E-01   4.000000E-01   4.000000E-01   4.000000E-01   4.000000E-01   4.000000E-01   4.000000E-01   4.000000E-01   4.000000E-01   4.000000E-01   4.000000E-01   4.000000E-01   4.000000E-01   4.000000E-01   4.000000E-01   4.000000E-01   4.000000E-01   4.000000E-01   4.000000E-01   4.000000E-01   4.000000E-01   4.000000E-01   4.000000E-01   4.000000E-01   4.000000E-01   4.000000E-01   4.000000E-01   4.000000E-01   4.000000E-01   4.000000E-01   4.000000E-01   4.000000E-01   4.000000E-01   4.000000E-01   4.000000E-01   4.000000E-01   4.000000E-01   4.000000E-01   4.000000E-01   4.000000E-01   4.000000E-01   4.000000E-01   4.000000E-01   4.000000E-01   4.000000E-01   4.000000E-01   4.000000E-01   4.000000E-01   4.000000E-01   4.000000E-01   4.000000E-01   4.000000E-01   4.000000E-01   4.000000E-01   4.000000E-01   4.000000E-01   4.000000E-01   4.000000E-01   4.000000E-01   4.000000E-01   4.000000E-01   4.000000E-01   4.000000E-01   4.000000E-01   4.000000E-01   4.000000E-01   4.000000E-01   4.000000E-01   4.000000E-01   4.000000E-01   4.000000E-01   4.000000E-01   4.000000E-01   4.000000E-01   4.000000E-01   4.000000E-01   4.000000E-01   4.000000E-01   4.000000E-01   4.000000E-01   4.000000E-01   4.000000E-01   4.000000E-01   4.000000E-01   4.000000E-01   4.000000E-01   4.000000E-01   4.000000E-01   4.000000E-01   4.000000E-01   4.000000E-01   4.000000E-01   4.000000E-01   4.000000E-01   4.000000E-01   4.000000E-01   4.000000E-01   4.000000E-01   4.000000E-01   4.000000E-01   4.000000E-01   4.000000E-01   4.000000E-01   4.000000E-01   4.000000E-01   4.000000E-01   4.000000E-01   4.000000E-01   4.000000E-01   4.000000E-01   4.000000E-01   4.000000E-01   4.000000E-01   4.000000E-01   4.000000E-01   4.000000E-01   4.000000E-01   4.000000E-01   4.000000E-01   4.000000E-01   4.000000E-01   4.000000E-01   4.000000E-01   4.000000E-01   4.000000E-01   4.000000E-01   4.000000E-01   4.000000E-01   4.000000E-01   4.000000E-01   4.000000E-01   4.000000E-01   4.000000E-01   4.000000E-01   4.000000E-01   4.000000E-01   4.000000E-01   4.000000E-01   4.000000E-01   4.000000E-01   4.000000E-01   4.000000E-01   4.000000E-01   4.000000E-01   4.000000E-01   4.000000E-01   4.000000E-01   4.000000E-01   4.000000E-01   4.000000E-01   4.000000E-01   4.000000E-01   4.000000E-01   4.000000E-01   4.000000E-01   4.000000E-01   4.000000E-01   4.000000E-01   4.000000E-01   4.000000E-01   4.000000E-01   4.000000E-01   4.000000E-01   4.000000E-01   4.000000E-01   4.000000E-01   4.000000E-01   4.000000E-01   4.000000E-01   4.000000E-01   4.000000E-01   4.000000E-01   4.000000E-01   4.000000E-01   4.000000E-01   4.000000E-01   4.000000E-01   4.000000E-01   4.000000E-01   4.000000E-01   4.000000E-01   4.000000E-01   4.000000E-01   4.000000E-01   4.000000E-01   4.000000E-01   4.000000E-01   4.000000E-01   4.000000E-01   4.000000E-01   4.000000E-01   4.000000E-01   4.000000E-01   4.000000E-01   4.000000E-01   4.000000E-01   4.000000E-01   4.000000E-01   4.000000E-01   4.000000E-01   4.000000E-01   4.000000E-01   4.000000E-01   4.000000E-01   4.000000E-01   4.000000E-01   4.000000E-01   4.000000E-01   4.000000E-01   4.000000E-01   4.000000E-01   4.000000E-01   4.000000E-01   4.000000E-01   4.000000E-01   4.000000E-01   4.000000E-01   4.000000E-01   4.000000E-01   4.000000E-01   4.000000E-01   4.000000E-01   4.000000E-01   4.000000E-01   4.000000E-01   4.000000E-01   4.000000E-01   4.000000E-01   4.000000E-01   4.000000E-01   4.000000E-01   4.000000E-01   4.000000E-01   4.000000E-01   4.000000E-01   4.000000E-01   4.000000E-01   4.000000E-01   4.000000E-01   4.000000E-01   4.000000E-01   4.000000E-01   4.000000E-01   4.000000E-01   4.000000E-01   4.000000E-01   4.000000E-01   4.000000E-01   4.000000E-01   4.000000E-01   4.000000E-01   4.000000E-01   4.000000E-01   4.000000E-01   4.000000E-01   4.000000E-01   4.000000E-01   4.000000E-01   4.000000E-01   4.000000E-01   4.000000E-01   4.000000E-01   4.000000E-01   4.000000E-01   4.000000E-01   4.000000E-01   4.000000E-01   4.000000E-01   4.000000E-01   4.000000E-01   4.000000E-01   4.000000E-01   4.000000E-01   4.000000E-01   4.000000E-01   4.000000E-01   4.000000E-01   4.000000E-01   4.000000E-01   4.000000E-01   4.000000E-01   4.000000E-01   4.000000E-01   4.000000E-01   4.000000E-01   4.000000E-01   4.000000E-01   4.000000E-01   4.000000E-01   4.000000E-01   4.000000E-01   4.000000E-01   4.000000E-01   4.000000E-01   4.000000E-01   4.000000E-01   4.000000E-01   4.000000E-01   4.000000E-01   4.000000E-01   4.000000E-01   4.000000E-01   4.000000E-01   4.000000E-01   4.000000E-01   4.000000E-01   4.000000E-01   4.000000E-01   4.000000E-01   4.000000E-01   4.000000E-01   4.000000E-01   4.000000E-01   4.000000E-01   4.000000E-01   4.000000E-01   4.000000E-01   4.000000E-01   4.000000E-01   4.000000E-01   4.000000E-01   4.000000E-01   4.000000E-01   4.000000E-01   4.000000E-01   4.000000E-01   4.000000E-01   4.000000E-01   4.000000E-01   4.000000E-01   4.000000E-01   4.000000E-01   4.000000E-01   4.000000E-01   4.000000E-01   4.000000E-01   4.000000E-01   4.000000E-01   4.000000E-01   4.000000E-01   4.000000E-01   4.000000E-01   4.000000E-01   4.000000E-01   4.000000E-01   4.000000E-01   4.000000E-01   4.000000E-01   4.000000E-01   4.000000E-01   4.000000E-01   4.000000E-01   4.000000E-01   4.000000E-01   4.000000E-01   4.000000E-01   4.000000E-01   4.000000E-01   4.000000E-01   4.000000E-01   4.000000E-01   4.000000E-01   4.000000E-01   4.000000E-01   4.000000E-01   4.000000E-01   4.000000E-01   4.000000E-01   4.000000E-01   4.000000E-01   4.000000E-01   4.000000E-01   4.000000E-01   4.000000E-01   4.000000E-01   4.000000E-01   4.000000E-01   4.000000E-01   4.000000E-01   4.000000E-01   4.000000E-01   4.000000E-01   4.000000E-01   4.000000E-01   4.000000E-01   4.000000E-01   4.000000E-01   4.000000E-01   4.000000E-01   4.000000E-01   4.000000E-01   4.000000E-01   4.000000E-01   4.000000E-01   4.000000E-01   4.000000E-01   4.000000E-01   4.000000E-01   4.000000E-01   4.000000E-01   4.000000E-01   4.000000E-01   4.000000E-01   4.000000E-01   4.000000E-01   4.000000E-01   4.000000E-01   4.000000E-01   4.000000E-01   4.000000E-01   4.000000E-01   4.000000E-01   4.000000E-01   4.000000E-01   4.000000E-01   4.000000E-01   4.000000E-01   4.000000E-01   4.000000E-01   4.000000E-01   4.000000E-01   4.000000E-01   4.000000E-01   4.000000E-01   4.000000E-01   4.000000E-01   4.000000E-01   4.000000E-01   4.000000E-01   4.000000E-01   4.000000E-01   4.000000E-01   4.000000E-01   4.000000E-01   4.000000E-01   4.000000E-01   4.000000E-01   4.000000E-01   4.000000E-01   4.000000E-01   4.000000E-01   4.000000E-01   4.000000E-01   4.000000E-01   4.000000E-01   4.000000E-01   4.000000E-01   4.000000E-01   4.000000E-01   4.000000E-01   4.000000E-01   4.000000E-01   4.000000E-01   4.000000E-01   4.000000E-01   4.000000E-01   4.000000E-01   4.000000E-01   4.000000E-01   4.000000E-01   4.000000E-01   4.000000E-01   4.000000E-01   4.000000E-01   4.000000E-01   4.000000E-01   4.000000E-01   4.000000E-01   4.000000E-01   4.000000E-01   4.000000E-01   4.000000E-01   4.000000E-01   4.000000E-01   4.000000E-01   4.000000E-01   4.000000E-01   4.000000E-01   4.000000E-01   4.000000E-01   4.000000E-01   4.000000E-01   4.000000E-01   4.000000E-01   4.000000E-01   4.000000E-01   4.000000E-01   4.000000E-01   4.000000E-01   4.000000E-01   4.000000E-01   4.000000E-01   4.000000E-01   4.000000E-01   4.000000E-01   4.000000E-01   4.000000E-01   4.000000E-01   4.000000E-01   4.000000E-01   4.000000E-01   4.000000E-01   4.000000E-01   4.000000E-01   4.000000E-01   4.000000E-01   4.000000E-01   4.000000E-01   4.000000E-01   4.000000E-01   4.000000E-01   4.000000E-01   4.000000E-01   4.000000E-01   4.000000E-01   4.000000E-01   4.000000E-01   4.000000E-01   4.000000E-01   4.000000E-01   4.000000E-01   4.000000E-01   4.000000E-01   4.000000E-01   4.000000E-01   4.000000E-01   4.000000E-01   4.000000E-01   4.000000E-01   4.000000E-01   4.000000E-01   4.000000E-01   4.000000E-01   4.000000E-01   4.000000E-01   4.000000E-01   4.000000E-01   4.000000E-01   4.000000E-01   4.000000E-01   4.000000E-01   4.000000E-01   4.000000E-01   4.000000E-01   4.000000E-01   4.000000E-01   4.000000E-01   4.000000E-01   4.000000E-01   4.000000E-01   4.000000E-01   4.000000E-01   4.000000E-01   4.000000E-01   4.000000E-01   4.000000E-01   4.000000E-01   4.000000E-01   4.000000E-01   4.000000E-01   4.000000E-01   4.000000E-01   4.000000E-01   4.000000E-01   4.000000E-01   4.000000E-01   4.000000E-01   4.000000E-01   4.000000E-01   4.000000E-01   4.000000E-01   4.000000E-01   4.000000E-01   4.000000E-01   4.000000E-01   4.000000E-01   4.000000E-01   4.000000E-01   4.000000E-01   4.000000E-01   4.000000E-01   4.000000E-01   4.000000E-01   4.000000E-01   4.000000E-01   4.000000E-01   4.000000E-01   4.000000E-01   4.000000E-01   4.000000E-01   4.000000E-01   4.000000E-01   4.000000E-01   4.000000E-01   4.000000E-01   4.000000E-01   4.000000E-01   4.000000E-01   4.000000E-01   4.000000E-01   4.000000E-01   4.000000E-01   4.000000E-01   4.000000E-01   4.000000E-01   4.000000E-01   4.000000E-01   4.000000E-01   4.000000E-01   4.000000E-01   4.000000E-01   4.000000E-01   4.000000E-01   4.000000E-01   4.000000E-01   4.000000E-01   4.000000E-01   4.000000E-01   4.000000E-01   4.000000E-01   4.000000E-01   4.000000E-01   4.000000E-01   4.000000E-01   4.000000E-01   4.000000E-01   4.000000E-01   4.000000E-01   4.000000E-01   4.000000E-01   4.000000E-01   4.000000E-01   4.000000E-01   4.000000E-01   4.000000E-01   4.000000E-01   4.000000E-01   4.000000E-01   4.000000E-01   