<?xml version="1.0"?>
<!-- Time =  1.9006176260280059E+00s -->
<VTKFile type="PolyData" version="0.1" byte_order="LittleEndian">
<PolyData>
<Piece NumberOfPoints="0000002400" NumberOfVerts="0" NumberOfLines="0" NumberOfStrips="0" NumberOfPolys="0">
<Points>
<DataArray type="Float32" Name="Position" NumberOfComponents="3" format="ascii">
  7.327621E-01   2.137792E-01   2.126755E-01   3.269952E+00   1.288947E+00   6.124786E-01   5.014714E+00   1.256707E+01   1.187177E+00   4.756318E+00   8.136829E+00   5.299651E-01   1.311490E+00   6.982257E-01   2.876685E+00   6.444838E+00   8.372051E+00   2.405962E+00   7.202598E+00   2.194099E+00   2.161051E+00   7.440254E+00   1.889762E+00   4.521908E+00   9.313169E+00   1.045547E+01   1.434325E+00   2.546166E+00   2.542396E-01   3.174166E+00   1.430355E+01   1.307178E+01   4.216904E+00   9.542102E+00   3.223578E+00   2.444326E+00   6.232872E-01   7.941956E+00   5.583692E-01   6.557948E+00   7.509478E-01   2.321688E+00   4.056624E+00   8.587292E+00   3.335291E+00   8.683702E+00   8.198392E-01   1.602802E+00   2.966565E+00   2.239237E-01   2.692456E-01   6.703663E+00   9.411825E+00   5.060353E-01   7.316883E+00   3.209505E+00   2.686800E+00   9.309245E+00   6.935783E-01   3.159964E+00   1.007285E+01   8.858802E+00   2.270721E+00   6.128114E+00   8.203086E-01   4.061323E+00   5.544608E+00   1.383050E+01   2.485557E+00   4.401834E+00   2.021080E-01   4.152553E+00   4.776919E+00   5.487765E-01   2.194341E+00   1.468663E+01   1.809776E+00   4.836640E+00   9.629669E+00   3.405932E-01   3.870660E+00   7.349707E+00   1.912882E+00   3.922031E-01   1.296024E+00   2.249442E-01   1.368194E+00   6.395752E-01   3.116075E-01   1.896264E+00   1.314875E+01   2.004423E+01   4.867924E+00   6.175765E+00   5.544924E-01   2.772942E-01   6.523723E+00   1.248395E+00   4.816781E+00   7.461637E+00   2.002309E+01   1.569357E+00   7.033212E+00   7.452886E-01   1.269310E+00   8.843151E-01   8.551708E-01   1.900237E+00   2.663677E+00   2.012907E-01   3.613298E+00   8.070346E+00   7.184505E+00   3.564727E+00   1.339308E+00   2.036051E+00   1.484429E+00   5.616715E+00   9.196416E-01   1.615402E+00   3.320663E+00   2.311490E+00   4.004313E+00   5.873325E+00   2.921877E+00   4.276745E+00   1.081838E+01   1.062745E+00   3.989563E+00   7.157759E+00   4.088840E+00   8.960872E-01   2.533479E+00   2.461278E-01   1.372709E+00   6.619996E+00   5.651083E+00   3.217903E+00   6.642276E+00   6.625554E+00   4.116276E+00   1.129455E+01   2.696220E-01   4.645432E+00   4.706334E+00   1.380227E+01   6.832809E-01   5.495870E+00   6.757573E+00   4.690491E+00   1.061138E+01   7.003742E-01   4.473428E+00   1.366928E+01   7.955804E+00   3.811766E+00   6.981623E+00   3.160364E+00   2.159676E+00   8.016261E+00   3.045272E+00   1.441238E+00   3.931060E+00   2.064376E-01   1.343272E+00   8.799593E-01   5.344364E+00   3.170906E+00   4.596506E+00   3.795821E-01   3.670863E+00   7.915644E+00   1.432648E+00   1.259890E+00   4.820933E+00   2.053525E-01   2.588887E-01   5.527843E+00   2.129299E-01   2.046556E-01   8.450398E+00   1.367278E+00   7.247987E-01   1.443774E+01   1.035040E+01   1.958323E+00   1.275474E+01   1.147202E+00   2.547320E+00   5.511514E+00   4.390966E-01   6.004684E-01   6.324008E+00   3.395810E+00   1.408733E+00   3.131959E+00   3.219798E-01   3.517851E+00   4.296189E+00   1.359330E+01   1.457995E+00   2.596013E+00   1.622307E+00   4.330933E+00   7.399893E+00   2.993121E+00   4.535299E+00   1.233306E+01   5.940059E-01   1.950162E+00   4.574360E+00   7.111080E-01   3.895849E+00   5.004251E+00   9.667592E-01   3.943185E+00   3.199191E+00   6.315806E-01   2.265673E+00   6.793577E+00   4.461872E+00   3.042056E+00   4.254796E+00   4.790512E+00   2.060869E+00   1.367393E+01   5.665714E-01   4.714558E+00   5.130854E+00   8.860293E-01   3.545146E+00   4.212437E+00   3.161317E+00   3.218203E+00   1.453258E+01   2.406844E-01   1.640287E+00   1.228456E+01   2.966590E-01   1.508959E+00   1.116926E+01   8.338463E+00   4.256227E+00   8.603683E+00   5.580575E-01   3.633582E+00   2.128657E+00   2.240853E-01   1.604035E+00   3.748325E+00   2.099744E-01   2.666895E+00   9.449764E+00   7.568829E-01   1.910337E+00   7.025818E+00   1.364951E+00   2.641900E+00   7.669468E+00   1.866253E+01   7.387079E-01   5.539602E+00   8.293207E-01   2.035318E+00   2.624259E+00   1.131112E+00   1.677338E+00   2.811263E+00   8.217090E-01   1.924855E+00   4.393893E+00   8.653378E-01   2.905565E+00   1.961170E+00   6.531147E-01   1.359370E+00   7.703021E+00   4.061228E+00   1.754477E+00   4.890314E+00   5.547341E-01   5.161732E-01   1.316766E+01   8.237482E-01   1.488856E+00   9.679228E+00   9.268883E+00   3.690779E+00   1.023906E+01   3.654386E+00   1.891071E+00   4.862135E+00   8.728619E-01   4.894262E+00   7.001429E+00   6.336550E-01   3.346214E+00   1.454094E+01   9.347940E+00   3.763795E+00   2.042417E-01   2.139909E-01   4.762915E+00   5.348200E+00   5.476911E-01   2.461866E+00   3.541860E+00   4.156903E+00   4.971302E+00   2.066174E-01   5.840154E-01   4.563720E+00   5.602203E+00   4.725124E+00   2.051993E-01   6.361555E-01   4.299846E-01   2.274925E+00   6.575774E+00   1.998213E-01   2.372454E+00   1.192114E+01   2.590955E-01   4.587416E-01   2.280647E-01   6.154778E-01   3.457841E+00   6.784259E+00   2.180152E+00   3.725492E+00   2.762060E+00   2.157456E-01   1.729518E+00   6.214842E+00   1.649868E+01   2.369595E+00   8.176836E+00   1.892642E+01   4.482690E+00   1.219390E+01   1.841163E+00   4.336851E+00   9.593421E-01   7.398102E+00   4.339814E-01   3.440605E+00   5.951857E-01   1.938567E+00   2.091611E+00   1.309136E+00   1.753119E+00   7.484122E+00   1.177074E+00   2.534794E+00   1.154921E+01   2.833032E+00   4.702759E+00   5.598507E+00   5.450343E-01   4.912030E+00   1.452982E+01   1.484243E+00   4.253410E+00   6.637094E+00   6.042162E-01   2.599608E-01   6.686132E+00   4.514678E-01   1.504349E+00   8.949598E+00   1.665074E+01   4.464209E+00   1.612758E+00   7.148368E+00   3.168761E+00   3.083263E+00   2.194792E-01   4.371988E+00   7.764474E+00   1.365699E+01   4.852530E+00   1.011833E+01   1.189878E+00   4.537844E+00   8.238277E+00   1.788071E+01   2.174773E+00   2.538000E+00   6.246547E-01   1.500203E+00   5.676050E+00   2.004477E-01   1.907857E+00   6.300187E+00   1.143806E+00   1.039877E+00   7.691401E+00   1.693014E+01   3.193841E+00   5.655211E+00   1.440412E+01   1.026192E+00   6.900676E+00   4.334732E-01   3.731876E+00   1.386532E+01   3.684964E-01   3.073086E+00   6.868299E+00   1.761830E+01   2.730049E+00   9.634892E+00   1.044615E+01   3.174357E+00   5.025524E+00   1.287938E+00   4.393622E+00   1.053828E+00   1.257789E+00   1.091478E+00   6.057233E+00   7.249588E+00   3.757122E+00   6.123006E+00   5.689865E-01   7.728219E-01   8.890366E+00   1.936135E-01   6.478618E-01   3.283983E+00   2.127484E-01   5.779933E-01   9.890315E+00   4.499743E+00   1.193731E+00   4.073946E+00   7.180375E+00   2.458870E+00   6.776303E+00   7.122386E+00   1.200837E+00   1.374032E+00   7.146728E+00   8.918321E-01   4.716866E+00   9.325028E-01   2.104494E+00   1.280896E+01   2.722058E-01   1.676432E+00   1.835928E+00   2.364008E-01   2.151336E-01   6.723052E+00   1.047410E+00   1.427132E+00   3.353143E+00   8.639975E+00   5.639631E-01   4.806469E+00   1.248435E+01   2.797659E+00   5.378829E+00   1.489837E+01   1.395382E+00   8.086917E-01   1.208317E+00   4.759220E+00   7.174419E+00   4.043979E+00   1.806625E+00   7.668804E+00   8.715714E+00   4.301008E+00   7.395812E-01   1.015979E+00   6.100855E-01   6.450930E+00   5.290142E-01   3.103762E+00   7.130761E+00   1.764216E+01   7.498292E-01   3.827012E-01   1.150646E+00   8.527049E-01   4.224720E+00   4.556264E-01   4.704031E+00   3.979944E+00   2.196255E-01   4.927342E+00   1.475349E+00   3.063529E+00   2.851028E+00   5.085862E+00   5.478438E-01   4.134181E+00   9.018414E+00   4.215019E-01   3.262760E+00   1.097039E+01   1.089105E+01   3.302593E+00   4.530134E-01   5.369673E-01   2.225951E-01   2.871642E-01   2.039119E-01   1.572972E+00   9.732574E-01   7.011250E-01   2.315286E+00   1.621609E+00   5.593077E-01   7.361962E-01   4.070021E+00   2.008414E-01   3.928620E+00   7.114854E+00   8.577533E+00   3.960688E+00   6.499692E+00   4.456481E+00   2.504910E+00   5.084816E+00   1.699458E+00   3.043772E-01   6.338788E-01   6.814575E+00   3.039456E+00   8.775093E+00   1.761489E+00   2.006450E+00   6.676072E+00   2.354783E+00   5.950118E-01   2.066473E+00   2.543138E-01   1.104942E+00   5.179630E+00   1.846885E+01   4.786479E+00   6.556321E+00   1.632480E+01   3.766907E-01   4.453860E+00   2.298619E-01   1.334780E+00   1.332427E+01   2.043317E-01   1.084599E+00   1.842479E+00   2.384804E-01   6.124679E-01   1.334898E+01   4.892640E-01   2.987691E+00   9.391818E+00   2.389498E-01   3.027089E+00   1.281200E+01   8.021573E-01   1.717170E+00   1.289181E+01   3.967519E+00   2.575859E+00   7.296622E+00   1.127513E+00   1.979395E+00   7.790230E+00   1.536685E+00   2.922071E+00   6.097589E-01   1.815995E+00   4.259049E-01   3.126141E+00   2.131874E-01   1.337252E+00   6.796595E+00   5.136297E+00   3.697884E+00   6.458022E+00   3.319832E+00   2.018161E+00   1.440001E+00   2.122213E-01   6.271335E-01   5.755473E+00   4.679489E+00   3.087051E+00   1.452683E+01   2.484323E+00   2.288708E+00   2.839193E+00   1.200227E+01   1.655805E+00   1.798249E+00   8.640943E-01   2.882401E+00   5.485785E+00   2.492319E+00   1.525527E+00   1.127610E+01   1.065136E+00   4.809611E+00   6.585202E+00   8.433724E+00   4.145301E+00   3.755772E+00   4.001211E-01   4.593192E+00   2.776842E+00   5.078337E-01   7.816508E-01   4.190333E+00   2.043151E-01   6.876988E-01   7.881124E+00   1.245465E+00   5.906883E-01   1.159306E+01   4.060605E-01   2.817605E-01   7.750189E+00   2.271245E+00   1.220626E+00   5.142716E+00   2.020179E-01   4.953372E-01   3.165744E+00   1.025792E+00   2.182735E+00   9.950035E-01   1.892879E-01   1.623105E+00   6.812551E+00   8.702413E-01   3.080671E+00   5.779711E+00   2.023884E-01   1.253925E+00   9.922713E+00   6.998001E+00  
[...]
<PointData Scalars="Diameter" Vectors="Velocity">
<DataArray type="Float32" Name="Diameter" format="ascii">
  4.000000E-01   4.000000E-01   4.000000E-01   4.000000E-01   4.000000E-01   4.000000E-01   4.000000E-01   4.000000E-01   4.000000E-01   4.000000E-01   4.000000E-01   4.000000E-01   4.000000E-01   4.000000E-01   4.000000E-01   4.000000E-01   4.000000E-01   4.000000E-01   4.000000E-01   4.000000E-01   4.000000E-01   4.000000E-01   4.000000E-01   4.000000E-01   4.000000E-01   4.000000E-01   4.000000E-01   4.000000E-01   4.000000E-01   4.000000E-01   4.000000E-01   4.000000E-01   4.000000E-01   4.000000E-01   4.000000E-01   4.000000E-01   4.000000E-01   4.000000E-01   4.000000E-01   4.000000E-01   4.000000E-01   4.000000E-01   4.000000E-01   4.000000E-01   4.000000E-01   4.000000E-01   4.000000E-01   4.000000E-01   4.000000E-01   4.000000E-01   4.000000E-01   4.000000E-01   4.000000E-01   4.000000E-01   4.000000E-01   4.000000E-01   4.000000E-01   4.000000E-01   4.000000E-01   4.000000E-01   4.000000E-01   4.000000E-01   4.000000E-01   4.000000E-01   4.000000E-01   4.000000E-01   4.000000E-01   4.000000E-01   4.000000E-01   4.000000E-01   4.000000E-01   4.000000E-01   4.000000E-01   4.000000E-01   4.000000E-01   4.000000E-01   4.000000E-01   4.000000E-01   4.000000E-01   4.000000E-01   4.000000E-01   4.000000E-01   4.000000E-01   4.000000E-01   4.000000E-01   4.000000E-01   4.000000E-01   4.000000E-01   4.000000E-01   4.000000E-01   4.000000E-01   4.000000E-01   4.000000E-01   4.000000E-01   4.000000E-01   4.000000E-01   4.000000E-01   4.000000E-01   4.000000E-01   4.000000E-01   4.000000E-01   4.000000E-01   4.000000E-01   4.000000E-01   4.000000E-01   4.000000E-01   4.000000E-01   4.000000E-01   4.000000E-01   4.000000E-01   4.000000E-01   4.000000E-01   4.000000E-01   4.000000E-01   4.000000E-01   4.000000E-01   4.000000E-01   4.000000E-01   4.000000E-01   4.000000E-01   4.000000E-01   4.000000E-01   4.000000E-01   4.000000E-01   4.000000E-01   4.000000E-01   4.000000E-01   4.000000E-01   4.000000E-01   4.000000E-01   4.000000E-01   4.000000E-01   4.000000E-01   4.000000E-01   4.000000E-01   4.000000E-01   4.000000E-01   4.000000E-01   4.000000E-01   4.000000E-01   4.000000E-01   4.000000E-01   4.000000E-01   4.000000E-01   4.000000E-01   4.000000E-01   4.000000E-01   4.000000E-01   4.000000E-01   4.000000E-01   4.000000E-01   4.000000E-01   4.000000E-01   4.000000E-01   4.000000E-01   4.000000E-01   4.000000E-01   4.000000E-01   4.000000E-01   4.000000E-01   4.000000E-01   4.000000E-01   4.000000E-01   4.000000E-01   4.000000E-01   4.000000E-01   4.000000E-01   4.000000E-01   4.000000E-01   4.000000E-01   4.000000E-01   4.000000E-01   4.000000E-01   4.000000E-01   4.000000E-01   4.000000E-01   4.000000E-01   4.000000E-01   4.000000E-01   4.000000E-01   4.000000E-01   4.000000E-01   4.000000E-01   4.000000E-01   4.000000E-01   4.000000E-01   4.000000E-01   4.000000E-01   4.000000E-01   4.000000E-01   4.000000E-01   4.000000E-01   4.000000E-01   4.000000E-01   4.000000E-01   4.000000E-01   4.000000E-01   4.000000E-01   4.000000E-01   4.000000E-01   4.000000E-01   4.000000E-01   4.000000E-01   4.000000E-01   4.000000E-01   4.000000E-01   4.000000E-01   4.000000E-01   4.000000E-01   4.000000E-01   4.000000E-01   4.000000E-01   4.000000E-01   4.000000E-01   4.000000E-01   4.000000E-01   4.000000E-01   4.000000E-01   4.000000E-01   4.000000E-01   4.000000E-01   4.000000E-01   4.000000E-01   4.000000E-01   4.000000E-01   4.000000E-01   4.000000E-01   4.000000E-01   4.000000E-01   4.000000E-01   4.000000E-01   4.000000E-01   4.000000E-01   4.000000E-01   4.000000E-01   4.000000E-01   4.000000E-01   4.000000E-01   4.000000E-01   4.000000E-01   4.000000E-01   4.000000E-01   4.000000E-01   4.000000E-01   4.000000E-01   4.000000E-01   4.000000E-01   4.000000E-01   4.000000E-01   4.000000E-01   4.000000E-01   4.000000E-01   4.000000E-01   4.000000E-01   4.000000E-01   4.000000E-01   4.000000E-01   4.000000E-01   4.000000E-01   4.000000E-01   4.000000E-01   4.000000E-01   4.000000E-01   4.000000E-01   4.000000E-01   4.000000E-01   4.000000E-01   4.000000E-01   4.000000E-01   4.000000E-01   4.000000E-01   4.000000E-01   4.000000E-01   4.000000E-01   4.000000E-01   4.000000E-01   4.000000E-01   4.000000E-01   4.000000E-01   4.000000E-01   4.000000E-01   4.000000E-01   4.000000E-01   4.000000E-01   4.000000E-01   4.000000E-01   4.000000E-01   4.000000E-01   4.000000E-01   4.000000E-01   4.000000E-01   4.000000E-01   4.000000E-01   4.000000E-01   4.000000E-01   4.000000E-01   4.000000E-01   4.000000E-01   4.000000E-01   4.000000E-01   4.000000E-01   4.000000E-01   4.000000E-01   4.000000E-01   4.000000E-01   4.000000E-01   4.000000E-01   4.000000E-01   4.000000E-01   4.000000E-01   4.000000E-01   4.000000E-01   4.000000E-01   4.000000E-01   4.000000E-01   4.000000E-01   4.000000E-01   4.000000E-01   4.000000E-01   4.000000E-01   4.000000E-01   4.000000E-01   4.000000E-01   4.000000E-01   4.000000E-01   4.000000E-01   4.000000E-01   4.000000E-01   4.000000E-01   4.000000E-01   4.000000E-01   4.000000E-01   4.000000E-01   4.000000E-01   4.000000E-01   4.000000E-01   4.000000E-01   4.000000E-01   4.000000E-01   4.000000E-01   4.000000E-01   4.000000E-01   4.000000E-01   4.000000E-01   4.000000E-01   4.000000E-01   4.000000E-01   4.000000E-01   4.000000E-01   4.000000E-01   4.000000E-01   4.000000E-01   4.000000E-01   4.000000E-01   4.000000E-01   4.000000E-01   4.000000E-01   4.000000E-01   4.000000E-01   4.000000E-01   4.000000E-01   4.000000E-01   4.000000E-01   4.000000E-01   4.000000E-01   4.000000E-01   4.000000E-01   4.000000E-01   4.000000E-01   4.000000E-01   4.000000E-01   4.000000E-01   4.000000E-01   4.000000E-01   4.000000E-01   4.000000E-01   4.000000E-01   4.000000E-01   4.000000E-01   4.000000E-01   4.000000E-01   4.000000E-01   4.000000E-01   4.000000E-01   4.000000E-01   4.000000E-01   4.000000E-01   4.000000E-01   4.000000E-01   4.000000E-01   4.000000E-01   4.000000E-01   4.000000E-01   4.000000E-01   4.000000E-01   4.000000E-01   4.000000E-01   4.000000E-01   4.000000E-01   4.000000E-01   4.000000E-01   4.000000E-01   4.000000E-01   4.000000E-01   4.000000E-01   4.000000E-01   4.000000E-01   4.000000E-01   4.000000E-01   4.000000E-01   4.000000E-01   4.000000E-01   4.000000E-01   4.000000E-01   4.000000E-01   4.000000E-01   4.000000E-01   4.000000E-01   4.000000E-01   4.000000E-01   4.000000E-01   4.000000E-01   4.000000E-01   4.000000E-01   4.000000E-01   4.000000E-01   4.000000E-01   4.000000E-01   4.000000E-01   4.000000E-01   4.000000E-01   4.000000E-01   4.000000E-01   4.000000E-01   4.000000E-01   4.000000E-01   4.000000E-01   4.000000E-01   4.000000E-01   4.000000E-01   4.000000E-01   4.000000E-01   4.000000E-01   4.000000E-01   4.000000E-01   4.000000E-01   4.000000E-01   4.000000E-01   4.000000E-01   4.000000E-01   4.000000E-01   4.000000E-01   4.000000E-01   4.000000E-01   4.000000E-01   4.000000E-01   4.000000E-01   4.000000E-01   4.000000E-01   4.000000E-01   4.000000E-01   4.000000E-01   4.000000E-01   4.000000E-01   4.000000E-01   4.000000E-01   4.000000E-01   4.000000E-01   4.000000E-01   4.000000E-01   4.000000E-01   4.000000E-01   4.000000E-01   4.000000E-01   4.000000E-01   4.000000E-01   4.000000E-01   4.000000E-01   4.000000E-01   4.000000E-01   4.000000E-01   4.000000E-01   4.000000E-01   4.000000E-01   4.000000E-01   4.000000E-01   4.000000E-01   4.000000E-01   4.000000E-01   4.000000E-01   4.000000E-01   4.000000E-01   4.000000E-01   4.000000E-01   4.000000E-01   4.000000E-01   4.000000E-01   4.000000E-01   4.000000E-01   4.000000E-01   4.000000E-01   4.000000E-01   4.000000E-01   4.000000E-01   4.000000E-01   4.000000E-01   4.000000E-01   4.000000E-01   4.000000E-01   4.000000E-01   4.000000E-01   4.000000E-01   4.000000E-01   4.000000E-01   4.000000E-01   4.000000E-01   4.000000E-01   4.000000E-01   4.000000E-01   4.000000E-01   4.000000E-01   4.000000E-01   4.000000E-01   4.000000E-01   4.000000E-01   4.000000E-01   4.000000E-01   4.000000E-01   4.000000E-01   4.000000E-01   4.000000E-01   4.000000E-01   4.000000E-01   4.000000E-01   4.000000E-01   4.000000E-01   4.000000E-01   4.000000E-01   4.000000E-01   4.000000E-01   4.000000E-01   4.000000E-01   4.000000E-01   4.000000E-01   4.000000E-01   4.000000E-01   4.000000E-01   4.000000E-01   4.000000E-01   4.000000E-01   4.000000E-01   4.000000E-01   4.000000E-01   4.000000E-01   4.000000E-01   4.000000E-01   4.000000E-01   4.000000E-01   4.000000E-01   4.000000E-01   4.000000E-01   4.000000E-01   4.000000E-01   4.000000E-01   4.000000E-01   4.000000E-01   4.000000E-01   4.000000E-01   4.000000E-01   4.000000E-01   4.000000E-01   4.000000E-01   4.000000E-01   4.000000E-01   4.000000E-01   4.000000E-01   4.000000E-01   4.000000E-01   4.000000E-01   4.000000E-01   4.000000E-01   4.000000E-01   4.000000E-01   4.000000E-01   4.000000E-01   4.000000E-01   4.000000E-01   4.000000E-01   4.000000E-01   4.000000E-01   4.000000E-01   4.000000E-01   4.000000E-01   4.000000E-01   4.000000E-01   4.000000E-01   4.000000E-01   4.000000E-01   4.000000E-01   4.000000E-01   4.000000E-01   4.000000E-01   4.000000E-01   4.000000E-01   4.000000E-01   4.000000E-01   4.000000E-01   4.000000E-01   4.000000E-01   4.000000E-01   4.000000E-01   4.000000E-01   4.000000E-01   4.000000E-01   4.000000E-01   4.000000E-01   4.000000E-01   4.000000E-01   4.000000E-01   4.000000E-01   4.000000E-01   4.000000E-01   4.000000E-01   4.000000E-01   4.000000E-01   4.000000E-01   4.000000E-01   4.000000E-01   4.000000E-01   4.000000E-01   4.000000E-01   4.000000E-01   4.000000E-01   4.000000E-01   4.000000E-01   4.000000E-01   4.000000E-01   4.000000E-01   4.000000E-01   4.000000E-01   4.000000E-01   4.000000E-01   4.000000E-01   4.000000E-01   4.000000E-01   4.000000E-01   4.000000E-01   4.000000E-01   4.000000E-01   4.000000E-01   4.000000E-01   4.000000E-01   4.000000E-01   4.000000E-01   4.000000E-01   4.000000E-01   4.000000E-01   4.000000E-01   4.000000E-01   4.000000E-01   4.000000E-01   4.000000E-01   4.000000E-01   4.000000E-01   4.000000E-01   4.000000E-01   4.000000E-01   4.000000E-01   4.000000E-01   4.000000E-01   4.000000E-01   4.000000E-01   4.000000E-01   4.000000E-01   4.000000E-01   4.000000E-01   4.000000E-01   4.000000E-01   4.000000E-01   4.000000E-01   4.000000E-01   4.000000E-01   4.000000E-01   4.000000E-01   4.000000E-01   4.000000E-01   4.000000E-01   4.000000E-01   4.000000E-01   4.000000E-01   4.000000E-01   4.000000E-01   4.000000E-01   4.000000E-01   4.000000E-01   4.000000E-01   4.000000E-01   4.000000E-01   4.000000E-01   4.000000E-01   4.000000E-01   4.000000E-01   4.000000E-01   4.000000E-01   4.000000E-01   4.000000E-01   4.000000E-01   4.000000E-01   4.000000E-01   4.000000E-01   4.000000E-01   4.000000E-01   4.000000E-01   4.000000E-01   4.000000E-01   4.000000E-01   4.000000E-01   4.000000E-01   4.000000E-01   4.000000E-01   4.000000E-01   4.000000E-01   4.000000E-01   4.000000E-01   4.000000E-01   4.000000E-01   4.000000E-01   4.000000E-01   4.000000E-01   4.000000E-01   4.000000E-01   4.000000E-01   4.000000E-01   4.000000E-01   4.000000E-01   4.000000E-01   4.000000E-01   4.000000E-01   4.000000E-01   4.000000E-01   4.000000E-01   4.000000E-01   4.000000E-01   4.000000E-01   4.000000E-01   4.000000E-01   4.000000E-01   4.000000E-01   4.000000E-01   4.000000E-01   4.000000E-01   4.000000E-01   4.000000E-01   4.000000E-01   4.000000E-01   4.000000E-01   4.000000E-01   4.000000E-01   4.000000E-01   4.000000E-01   4.000000E-01   4.000000E-01   4.000000E-01   4.000000E-01   4.000000E-01   4.000000E-01   4.000000E-01   4.000000E-01   4.000000E-01   4.000000E-01   4.000000E-01   4.000000E-01   4.000000E-01   4.000000E-01   4.000000E-01   4.000000E-01   4.000000E-01   4.000000E-01   4.000000E-01   4.000000E-01   4.000000E-01   4.000000E-01   4.000000E-01   4.000000E-01   4.000000E-01   4.000000E-01   4.000000E-01   4.000000E-01   4.000000E-01   4.000000E-01   4.000000E-01   4.000000E-01   4.000000E-01   4.000000E-01   4.000000E-01   4.000000E-01   4.000000E-01   4.000000E-01   4.000000E-01   4.000000E-01   4.000000E-01   4.000000E-01   4.000000E-01   4.000000E-01   4.000000E-01   4.000000E-01   4.000000E-01   4.000000E-01   4.000000E-01   4.000000E-01   4.000000E-01   4.000000E-01   4.000000E-01   4.000000E-01   4.000000E-01   4.000000E-01   4.000000E-01   4.000000E-01   4.000000E-01   4.000000E-01   4.000000E-01   4.000000E-01   4.000000E-01   4.000000E-01   4.000000E-01   4.000000E-01   4.000000E-01   4.000000E-01   4.000000E-01   4.000000E-01   4.000000E-01   4.000000E-01   4.000000E-01   4.000000E-01   4.000000E-01   4.000000E-01   4.000000E-01   4.000000E-01   4.000000E-01   4.000000E-01   4.000000E-01   4.000000E-01   4.000000E-01   4.000000E-01   4.000000E-01   4.000000E-01   4.000000E-01   4.000000E-01   4.000000E-01   4.000000E-01   4.000000E-01   4.000000E-01   4.000000E-01   4.000000E-01   4.000000E-01   4.000000E-01   4.000000E-01   4.000000E-01   4.000000E-01   4.000000E-01   4.000000E-01   4.000000E-01   4.000000E-01   4.000000E-01   4.000000E-01   4.000000E-01   4.000000E-01   4.000000E-01   4.000000E-01   4.000000E-01   4.000000E-01   4.000000E-01   4.000000E-01   4.000000E-01   4.000000E-01   4.000000E-01   4.000000E-01   4.000000E-01   4.000000E-01   4.000000E-01   4.000000E-01   4.000000E-01   4.000000E-01   4.000000E-01   4.000000E-01   4.000000E-01   4.000000E-01   4.000000E-01   4.000000E-01   4.000000E-01   4.000000E-01   4.000000E-01   4.000000E-01   4.000000E-01   4.000000E-01   4.000000E-01   4.000000E-01   4.000000E-01   4.000000E-01   4.000000E-01   4.000000E-01   4.000000E-01   4.000000E-01   4.000000E-01   4.000000E-01   4.000000E-01   4.000000E-01   4.000000E-01   4.000000E-01   4.000000E-01   4.000000E-01   4.000000E-01   4.000000E-01   4.000000E-01   4.000000E-01   4.000000E-01   4.000000E-01   4.000000E-01   4.000000E-01   4.000000E-01   4.000000E-01   4.000000E-01   4.000000E-01   4.000000E-01   4.000000E-01   4.000000E-01   4.000000E-01   4.000000E-01   4.000000E-01   4.000000E-01   4.000000E-01   4.000000E-01   4.000000E-01   4.000000E-01   4.000000E-01   4.000000E-01   4.000000E-01   4.000000E-01   4.000000E-01   4.000000E-01   4.000000E-01   4.000000E-01   4.000000E-01   4.000000E-01   4.000000E-01   4.000000E-01   4.000000E-01   4.000000E-01   4.000000E-01   4.000000E-01   4.000000E-01   4.000000E-01   4.000000E-01   4.000000E-01   4.000000E-01   4.000000E-01   4.000000E-01   4.000000E-01   4.000000E-01   4.000000E-01   4.000000E-01   4.000000E-01   4.000000E-01   4.000000E-01   4.000000E-01   4.000000E-01   4.000000E-01   4.000000E-01   4.000000E-01   4.000000E-01   4.000000E-01   4.000000E-01   4.000000E-01   4.000000E-01   4.000000E-01   4.000000E-01   4.000000E-01   4.000000E-01   4.000000E-01   4.000000E-01   4.000000E-01   4.000000E-01   4.000000E-01   4.000000E-01   4.000000E-01   4.000000E-01   4.000000E-01   4.000000E-01   4.000000E-01   4.000000E-01   4.000000E-01   4.000000E-01   4.000000E-01   4.000000E-01   4.000000E-01   4.000000E-01   4.000000E-01   4.000000E-01   4.000000E-01   4.000000E-01   4.000000E-01   4.000000E-01   4.000000E-01   4.000000E-01   4.000000E-01   4.000000E-01   4.000000E-01   4.000000E-01   4.000000E-01   4.000000E-01   4.000000E-01   4.000000E-01   4.000000E-01   4.000000E-01   4.000000E-01   4.000000E-01   4.000000E-01   4.000000E-01   4.000000E-01   4.000000E-01   4.000000E-01   4.000000E-01   4.000000E-01   4.000000E-01   4.000000E-01   4.000000E-01   4.000000E-01   4.000000E-01   4.000000E-01   4.000000E-01   4.000000E-01   4.000000E-01   4.000000E-01   4.000000E-01   4.000000E-01   4.000000E-01   4.000000E-01   4.000000E-01   4.000000E-01   4.000000E-01   4.000000E-01   4.000000E-01   4.000000E-01   4.000000E-01   4.000000E-01   4.000000E-01   4.000000E-01   4.000000E-01   4.000000E-01   4.000000E-01   4.000000E-01   4.000000E-01   4.000000E-01   4.000000E-01   4.000000E-01   4.000000E-01   4.000000E-01   4.000000E-01   4.000000E-01   4.000000E-01   4.000000E-01   4.000000E-01   4.000000E-01   4.000000E-01   4.000000E-01   4.000000E-01   4.000000E-01   4.000000E-01   4.000000E-01   4.000000E-01   4.000000E-01   4.000000E-01   4.000000E-01   4.000000E-01   4.000000E-01   4.000000E-01   4.000000E-01   4.000000E-01   4.000000E-01   4.000000E-01   4.000000E-01   4.000000E-01   4.000000E-01   4.000000E-01   4.000000E-01   4.000000E-01   4.000000E-01   4.000000E-01   4.000000E-01   4.000000E-01   4.000000E-01   4.000000E-01   4.000000E-01   4.000000E-01   4.000000E-01   4.000000E-01   4.000000E-01   4.000000E-01   4.000000E-01   4.000000E-01   4.000000E-01   4.000000E-01   4.000000E-01   4.000000E-01   4.000000E-01   4.000000E-01   4.000000E-01   4.000000E-01   4.000000E-01   4.000000E-01   4.000000E-01   4.000000E-01   4.000000E-01   4.000000E-01   4.000000E-01   4.000000E-01   4.000000E-01   4.000000E-01   4.000000E-01   4.000000E-01   4.000000E-01   4.000000E-01   4.000000E-01   4.000000E-01   4.000000E-01   4.000000E-01   4.000000E-01   4.000000E-01   4.000000E-01   4.000000E-01   4.000000E-01   4.000000E-01   4.000000E-01   4.000000E-01   4.000000E-01   4.000000E-01   4.000000E-01   4.000000E-01   4.000000E-01   4.000000E-01   4.000000E-01   4.000000E-01   4.000000E-01   4.000000E-01   4.000000E-01   4.000000E-01   4.000000E-01   4.000000E-01   4.000000E-01   4.000000E-01   4.000000E-01   4.000000E-01   4.000000E-01   4.000000E-01   4.000000E-01   4.000000E-01   4.000000E-01   4.000000E-01   4.000000E-01   4.000000E-01   4.000000E-01   4.000000E-01   4.000000E-01   4.000000E-01   4.000000E-01   4.000000E-01   4.000000E-01   4.000000E-01   4.000000E-01   4.000000E-01   4.000000E-01   4.000000E-01   4.000000E-01   4.000000E-01   4.000000E-01   4.000000E-01   4.000000E-01   4.000000E-01   4.000000E-01   4.000000E-01   4.000000E-01   4.000000E-01   4.000000E-01   4.000000E-01   4.000000E-01   4.000000E-01   4.000000E-01   4.000000E-01   4.000000E-01   4.000000E-01   4.000000E-01   4.000000E-01   4.000000E-01   4.000000E-01   4.000000E-01   4.000000E-01   4.000000E-01   4.000000E-01   4.000000E-01   4.000000E-01   4.000000E-01   4.000000E-01   4.000000E-01   4.000000E-01   4.000000E-01   4.000000E-01   4.000000E-01   4.000000E-01   4.000000E-01   4.000000E-01   4.000000E-01   4.000000E-01   4.000000E-01   4.000000E-01   4.000000E-01   4.000000E-01   4.000000E-01   4.000000E-01   4.000000E-01   4.000000E-01   4.000000E-01   4.000000E-01   4.000000E-01   4.000000E-01   4.000000E-01   4.000000E-01   4.000000E-01   4.000000E-01   4.000000E-01   4.000000E-01   4.000000E-01   4.000000E-01   4.000000E-01   4.000000E-01   4.000000E-01   4.000000E-01   4.000000E-01   4.000000E-01   4.000000E-01   4.000000E-01   4.000000E-01   4.000000E-01   4.000000E-01   4.000000E-01   4.000000E-01   4.000000E-01   4.000000E-01   4.000000E-01   4.000000E-01   4.000000E-01   4.000000E-01   4.000000E-01   4.000000E-01   4.000000E-01   4.000000E-01   4.000000E-01   4.000000E-01   4.000000E-01   4.000000E-01   4.000000E-01   4.000000E-01   4.000000E-01   4.000000E-01   4.000000E-01   4.000000E-01   4.000000E-01   4.000000E-01   4.000000E-01   4.000000E-01   4.000000E-01   4.000000E-01   4.000000E-01   4.000000E-01   4.000000E-01   4.000000E-01   4.000000E-01   4.000000E-01   4.000000E-01   4.000000E-01   4.000000E-01   4.000000E-01   4.000000E-01   4.000000E-01   4.000000E-01   4.000000E-01   4.000000E-01   4.000000E-01   4.000000E-01   4.000000E-01   4.000000E-01   4.000000E-01   4.000000E-01   4.000000E-01   4.000000E-01   4.000000E-01   4.000000E-01   4.000000E-01   4.000000E-01   4.000000E-01   4.000000E-01   4.000000E-01   4.000000E-01   4.000000E-01   4.000000E-01   4.000000E-01   4.000000E-01   4.000000E-01   4.000000E-01   4.000000E-01   4.000000E-01   4.000000E-01   4.000000E-01   4.000000E-01   4.000000E-01   4.000000E-01   4.000000E-01   4.000000E-01   4.000000E-01   4.000000E-01   4.000000E-01   4.000000E-01   4.000000E-01   4.000000E-01   4.000000E-01   4.000000E-01   4.000000E-01   