<?xml version="1.0"?>
<!-- Time =  2.2003176260279811E+00s -->
<VTKFile type="PolyData" version="0.1" byte_order="LittleEndian">
<PolyData>
<Piece NumberOfPoints="0000002400" NumberOfVerts="0" NumberOfLines="0" NumberOfStrips="0" NumberOfPolys="0">
<Points>
<DataArray type="Float32" Name="Position" NumberOfComponents="3" format="ascii">
  1.352486E+00   2.291555E-01   2.193656E-01   5.830574E+00   4.150498E-01   5.346280E-01   1.077889E+01   1.064098E+00   1.746485E+00   4.815118E+00   5.601809E-01   3.178939E+00   3.613338E+00   2.101043E-01   3.108036E+00   4.685867E+00   1.557425E+01   3.722282E-01   1.731936E+00   7.202367E+00   4.955563E+00   1.122476E+01   4.972159E+00   6.396245E-01   1.479256E+01   4.645964E-01   3.201613E+00   5.490589E+00   2.114251E-01   3.488980E+00   1.051790E+01   1.582427E+00   2.053587E+00   7.420395E+00   8.836349E+00   1.307510E+00   5.245619E+00   5.882214E-01   1.954952E+00   6.231492E-01   1.076945E+01   5.264927E-01   2.708022E+00   7.374110E-01   3.588208E+00   7.275342E+00   8.305094E+00   2.607974E-01   5.163686E+00   2.022065E-01   2.043188E-01   5.280134E+00   1.497596E+01   3.920708E+00   1.067693E+01   1.194279E+01   2.415557E-01   1.029743E+01   3.718302E-01   3.237069E+00   6.516294E+00   2.110666E+01   2.902738E+00   1.060996E+00   7.826931E+00   3.836803E+00   1.345561E+01   1.003370E+00   5.229236E-01   8.892090E-01   9.464804E-01   4.586030E+00   8.722898E+00   3.144139E+00   2.487705E-01   2.403732E+00   1.969569E-01   1.176776E+00   3.023546E+00   4.890254E-01   2.392848E+00   1.013634E+01   9.053823E-01   1.560520E+00   6.769430E+00   3.217162E+00   6.790639E-01   8.696136E+00   9.006946E+00   4.890265E+00   2.078031E+00   2.298557E+00   4.883322E+00   1.327700E+00   5.909634E-01   3.489568E+00   4.365951E+00   5.214704E-01   2.859157E-01   5.421861E+00   2.278670E-01   4.323356E+00   1.067885E+01   8.906695E+00   2.101976E+00   5.984105E+00   3.173411E+00   7.622997E-01   1.107975E+00   5.160595E+00   1.874029E+00   6.988309E+00   1.594386E+00   3.378117E+00   3.859480E+00   1.411244E+00   2.099686E-01   5.110940E+00   1.540374E+01   3.074218E+00   4.157298E+00   2.016501E-01   8.943828E-01   5.878728E+00   1.526174E+01   1.565583E+00   4.925459E+00   1.134135E+01   2.405297E+00   2.041796E+00   4.914293E-01   1.113661E+00   1.429115E+01   2.325645E-01   1.639732E+00   9.756960E+00   2.037312E+01   8.516691E-01   1.254233E+01   1.625177E+00   1.173565E+00   7.450561E+00   1.037584E+00   1.041941E+00   6.625718E+00   2.094750E+00   1.370362E+00   5.895163E+00   6.280168E+00   3.566398E+00   1.810898E+00   5.237732E+00   1.338825E+00   6.918552E+00   2.160501E+01   3.849511E+00   7.558686E+00   2.548027E+00   3.016414E-01   6.271317E+00   2.001141E+00   4.873787E-01   8.440381E+00   2.796092E-01   2.107507E+00   6.273426E+00   2.588761E-01   2.329366E+00   7.861989E+00   3.281204E-01   2.711841E+00   7.757826E+00   7.620772E+00   7.794900E-01   6.282923E+00   6.309646E+00   1.393086E+00   6.437444E+00   2.024145E-01   4.091063E+00   4.941849E+00   5.464414E-01   8.325284E-01   5.804307E+00   6.780910E-01   4.164996E+00   9.985504E+00   1.102770E+01   1.327071E+00   7.750576E+00   1.618011E+00   3.432765E+00   8.947366E+00   7.915982E+00   3.689625E+00   3.531396E+00   5.708888E+00   1.530886E+00   7.209823E+00   2.692035E+00   2.313514E+00   1.018390E+01   1.907411E+01   4.914157E+00   5.180375E+00   5.091147E-01   3.628876E+00   7.636323E+00   1.679606E+00   4.304684E+00   3.373961E+00   8.649760E-01   4.097275E+00   7.526263E+00   5.326047E+00   2.582682E+00   9.129746E+00   1.103848E+01   1.341006E+00   2.477299E+00   1.905316E+01   2.771947E+00   1.017569E+01   1.211168E+00   7.753924E-01   1.114827E+01   1.019078E+01   4.242980E+00   4.049482E+00   1.993694E-01   1.335718E+00   7.210078E+00   9.068314E-01   2.643585E+00   1.199071E+01   9.951028E+00   3.561034E-01   7.599488E+00   1.329968E+01   1.270621E+00   1.424672E+01   1.774294E+00   5.622746E-01   1.194367E+01   7.372988E+00   1.882156E+00   1.189375E+00   9.918256E+00   2.244969E+00   6.962784E+00   3.540599E-01   1.985170E+00   5.979355E+00   2.065895E-01   2.037939E+00   3.641631E+00   8.077483E-01   1.400930E+00   6.461615E+00   6.733282E+00   3.418073E+00   2.860210E+00   2.259953E-01   1.027534E+00   1.362953E+01   1.808026E+01   1.636683E+00   5.719259E+00   8.023151E-01   9.911926E-01   9.019917E+00   2.129776E+00   6.687060E-01   1.274877E+01   9.366306E+00   3.053743E+00   6.967916E+00   1.153553E+00   1.562097E+00   3.714176E+00   2.949329E-01   3.502501E+00   6.624367E-01   2.006580E-01   4.644727E+00   1.047296E+01   6.723693E+00   1.316786E+00   1.707477E+00   2.034948E-01   1.727917E+00   6.840186E+00   1.482985E+01   2.235046E+00   1.056751E+01   1.490928E+00   1.502579E+00   8.782814E-01   5.531092E-01   3.555216E+00   2.659465E+00   4.475848E+00   4.125430E+00   4.618593E+00   1.994790E-01   1.435663E+00   1.547771E+00   6.515508E-01   6.099377E-01   3.929146E+00   1.308508E+01   2.259895E+00   6.546917E+00   9.212438E-01   3.027880E+00   7.284560E+00   2.319552E+00   1.799311E+00   6.294454E+00   9.653422E-01   1.842678E+00   1.416435E+01   5.946316E-01   2.244417E+00   7.410364E+00   2.130597E+00   4.051250E+00   1.308109E+01   1.386922E+01   6.645766E-01   8.433470E+00   2.116455E-01   3.547034E+00   4.819952E+00   1.001208E+00   8.856782E-01   9.705572E+00   1.074369E+01   2.049783E+00   5.789415E+00   9.773884E+00   2.795570E+00   1.457988E+01   8.474228E+00   1.850756E+00   4.359527E+00   6.086946E-01   2.699528E+00   2.492558E+00   9.832399E-01   3.171425E+00   6.233368E+00   1.791070E+01   1.029045E+00   4.970586E+00   5.693043E-01   1.232611E+00   2.856517E+00   1.235995E+01   2.558034E+00   1.879663E+00   4.679183E+00   3.356925E+00   7.708268E+00   2.246823E+00   3.368978E+00   5.294726E+00   1.155197E+00   1.913864E+00   9.115251E+00   1.486742E+00   3.387520E+00   9.557486E+00   8.058465E-01   2.388457E+00   1.793305E+00   2.553568E+00   3.220776E+00   5.678082E+00   1.049981E+01   4.267056E+00   4.833603E+00   1.035143E+00   1.720322E+00   3.920363E+00   8.539421E+00   3.793950E-01   7.957207E+00   7.350925E+00   1.515746E+00   5.491281E+00   2.050321E-01   6.254685E-01   1.303267E+01   1.745871E+00   4.147899E+00   9.842107E+00   8.490590E-01   3.647967E+00   3.728467E+00   2.334538E-01   3.893223E+00   7.606083E+00   1.111944E+01   7.092472E-01   1.249607E+01   3.461193E-01   3.831948E+00   1.085212E+00   6.109029E-01   3.099175E+00   8.188532E+00   1.060532E+01   2.332830E+00   2.927499E+00   1.990449E-01   6.068366E-01   1.510732E+00   1.357175E+00   2.920431E+00   2.527845E+00   5.913142E-01   2.058929E+00   3.232284E+00   9.464685E-01   1.163455E+00   4.170214E+00   1.067260E+01   1.604149E+00   3.807690E+00   2.190224E+01   2.138447E+00   1.897483E-01   1.458182E+00   3.483139E+00   7.860421E+00   2.401206E+01   2.578140E+00   8.619513E-01   6.633642E-01   1.818293E+00   6.411163E+00   5.663474E-01   4.343107E+00   1.213350E+01   5.281525E-01   2.921561E+00   5.994211E+00   1.173084E+01   3.187576E+00   1.365440E+00   2.005393E-01   1.233326E+00   1.141077E+01   9.370328E+00   3.743291E+00   7.095561E+00   6.178214E+00   4.849282E+00   2.361498E+00   9.444140E-01   1.085627E+00   1.022553E+01   4.187804E+00   3.207071E+00   1.347658E+01   5.408067E-01   2.506006E+00   5.112649E+00   8.316200E+00   3.597420E+00   6.993561E-01   5.080636E-01   2.500613E-01   2.635436E-01   2.788282E-01   2.111578E+00   2.514564E-01   6.391962E-01   2.704905E-01   3.293542E+00   2.046802E-01   1.038383E+00   7.903748E+00   5.452754E+00   3.140935E+00   1.108407E+01   1.205668E+01   5.720105E-01   6.098994E+00   2.013633E+01   1.813435E+00   7.195292E+00   1.993207E+00   8.478191E-01   1.796781E+00   2.220262E-01   4.106177E+00   2.116033E+00   1.334856E+01   4.683706E+00   2.361354E+00   5.701261E-01   3.452482E+00   5.893406E+00   8.662316E-01   1.900035E+00   3.690799E+00   2.032848E-01   9.933671E-01   4.121322E+00   6.337892E-01   3.789344E+00   7.362293E+00   6.107940E+00   5.070094E-01   1.012702E+01   1.535012E+00   2.300686E+00   3.462012E+00   2.035950E-01   2.055139E-01   8.329468E+00   1.317644E+00   3.010886E-01   3.070561E+00   2.934264E+00   2.397053E+00   1.070527E+01   2.084050E-01   1.259084E+00   8.256737E+00   4.378286E-01   4.562521E+00   1.131769E+01   1.185840E+00   2.309833E+00   1.066132E+01   8.480320E-01   3.122255E+00   6.100191E-01   6.917408E-01   5.909346E-01   6.130292E+00   2.981835E-01   1.655039E+00   2.260937E+00   8.751876E+00   3.709432E+00   4.972098E-01   6.756070E+00   1.209311E+00   2.538910E+00   1.991466E-01   7.579131E-01   5.860001E+00   9.333374E-01   2.502428E+00   5.188651E-01   6.086430E-01   3.322584E+00   4.515673E+00   2.114717E-01   3.621301E+00   3.175705E+00   1.802757E+00   2.815248E+00   1.027421E+00   1.332134E+00   5.576192E-01   7.436259E+00   2.085222E+00   4.977015E+00   1.550854E+00   4.056128E+00   1.821525E+00   5.186220E+00   2.286180E-01   9.777755E-01   7.415646E+00   1.279962E+00   6.765018E-01   1.099134E+01   9.687310E+00   1.913599E-01   8.613188E+00   5.955645E-01   1.846540E+00   1.112870E+01   1.034343E+00   3.614552E+00   7.200050E+00   3.725339E+00   3.643286E-01   7.557403E+00   3.458441E+00   2.548074E+00   2.066598E+00   2.059385E-01   2.228094E+00   4.623248E+00   8.635359E+00   4.271776E+00   8.603305E-01   8.884366E+00   4.417964E+00   7.765972E+00   2.101159E+00   1.422648E+00   1.429238E+01   1.562383E+01   3.899370E+00   1.473331E+01   3.586678E-01   2.303189E+00   2.863120E+00   9.344804E+00   2.194734E+00   1.418128E+00   3.655081E+00   4.575229E+00   1.399667E+01   8.704432E-01   9.421514E-01   7.350360E+00   3.128700E+00   3.330895E+00   4.043930E+00   8.077653E-01   2.861654E+00   7.299765E+00   4.555811E+00   1.211149E+00   7.312329E+00   8.495601E-01   2.188958E+00   6.782107E+00   9.637956E-01   2.291582E+00   4.211262E+00   1.337296E+01   4.890707E+00   4.175774E+00   2.327736E-01  
[...]
<PointData Scalars="Diameter" Vectors="Velocity">
<DataArray type="Float32" Name="Diameter" format="ascii">
  4.000000E-01   4.000000E-01   4.000000E-01   4.000000E-01   4.000000E-01   4.000000E-01   4.000000E-01   4.000000E-01   4.000000E-01   4.000000E-01   4.000000E-01   4.000000E-01   4.000000E-01   4.000000E-01   4.000000E-01   4.000000E-01   4.000000E-01   4.000000E-01   4.000000E-01   4.000000E-01   4.000000E-01   4.000000E-01   4.000000E-01   4.000000E-01   4.000000E-01   4.000000E-01   4.000000E-01   4.000000E-01   4.000000E-01   4.000000E-01   4.000000E-01   4.000000E-01   4.000000E-01   4.000000E-01   4.000000E-01   4.000000E-01   4.000000E-01   4.000000E-01   4.000000E-01   4.000000E-01   4.000000E-01   4.000000E-01   4.000000E-01   4.000000E-01   4.000000E-01   4.000000E-01   4.000000E-01   4.000000E-01   4.000000E-01   4.000000E-01   4.000000E-01   4.000000E-01   4.000000E-01   4.000000E-01   4.000000E-01   4.000000E-01   4.000000E-01   4.000000E-01   4.000000E-01   4.000000E-01   4.000000E-01   4.000000E-01   4.000000E-01   4.000000E-01   4.000000E-01   4.000000E-01   4.000000E-01   4.000000E-01   4.000000E-01   4.000000E-01   4.000000E-01   4.000000E-01   4.000000E-01   4.000000E-01   4.000000E-01   4.000000E-01   4.000000E-01   4.000000E-01   4.000000E-01   4.000000E-01   4.000000E-01   4.000000E-01   4.000000E-01   4.000000E-01   4.000000E-01   4.000000E-01   4.000000E-01   4.000000E-01   4.000000E-01   4.000000E-01   4.000000E-01   4.000000E-01   4.000000E-01   4.000000E-01   4.000000E-01   4.000000E-01   4.000000E-01   4.000000E-01   4.000000E-01   4.000000E-01   4.000000E-01   4.000000E-01   4.000000E-01   4.000000E-01   4.000000E-01   4.000000E-01   4.000000E-01   4.000000E-01   4.000000E-01   4.000000E-01   4.000000E-01   4.000000E-01   4.000000E-01   4.000000E-01   4.000000E-01   4.000000E-01   4.000000E-01   4.000000E-01   4.000000E-01   4.000000E-01   4.000000E-01   4.000000E-01   4.000000E-01   4.000000E-01   4.000000E-01   4.000000E-01   4.000000E-01   4.000000E-01   4.000000E-01   4.000000E-01   4.000000E-01   4.000000E-01   4.000000E-01   4.000000E-01   4.000000E-01   4.000000E-01   4.000000E-01   4.000000E-01   4.000000E-01   4.000000E-01   4.000000E-01   4.000000E-01   4.000000E-01   4.000000E-01   4.000000E-01   4.000000E-01   4.000000E-01   4.000000E-01   4.000000E-01   4.000000E-01   4.000000E-01   4.000000E-01   4.000000E-01   4.000000E-01   4.000000E-01   4.000000E-01   4.000000E-01   4.000000E-01   4.000000E-01   4.000000E-01   4.000000E-01   4.000000E-01   4.000000E-01   4.000000E-01   4.000000E-01   4.000000E-01   4.000000E-01   4.000000E-01   4.000000E-01   4.000000E-01   4.000000E-01   4.000000E-01   4.000000E-01   4.000000E-01   4.000000E-01   4.000000E-01   4.000000E-01   4.000000E-01   4.000000E-01   4.000000E-01   4.000000E-01   4.000000E-01   4.000000E-01   4.000000E-01   4.000000E-01   4.000000E-01   4.000000E-01   4.000000E-01   4.000000E-01   4.000000E-01   4.000000E-01   4.000000E-01   4.000000E-01   4.000000E-01   4.000000E-01   4.000000E-01   4.000000E-01   4.000000E-01   4.000000E-01   4.000000E-01   4.000000E-01   4.000000E-01   4.000000E-01   4.000000E-01   4.000000E-01   4.000000E-01   4.000000E-01   4.000000E-01   4.000000E-01   4.000000E-01   4.000000E-01   4.000000E-01   4.000000E-01   4.000000E-01   4.000000E-01   4.000000E-01   4.000000E-01   4.000000E-01   4.000000E-01   4.000000E-01   4.000000E-01   4.000000E-01   4.000000E-01   4.000000E-01   4.000000E-01   4.000000E-01   4.000000E-01   4.000000E-01   4.000000E-01   4.000000E-01   4.000000E-01   4.000000E-01   4.000000E-01   4.000000E-01   4.000000E-01   4.000000E-01   4.000000E-01   4.000000E-01   4.000000E-01   4.000000E-01   4.000000E-01   4.000000E-01   4.000000E-01   4.000000E-01   4.000000E-01   4.000000E-01   4.000000E-01   4.000000E-01   4.000000E-01   4.000000E-01   4.000000E-01   4.000000E-01   4.000000E-01   4.000000E-01   4.000000E-01   4.000000E-01   4.000000E-01   4.000000E-01   4.000000E-01   4.000000E-01   4.000000E-01   4.000000E-01   4.000000E-01   4.000000E-01   4.000000E-01   4.000000E-01   4.000000E-01   4.000000E-01   4.000000E-01   4.000000E-01   4.000000E-01   4.000000E-01   4.000000E-01   4.000000E-01   4.000000E-01   4.000000E-01   4.000000E-01   4.000000E-01   4.000000E-01   4.000000E-01   4.000000E-01   4.000000E-01   4.000000E-01   4.000000E-01   4.000000E-01   4.000000E-01   4.000000E-01   4.000000E-01   4.000000E-01   4.000000E-01   4.000000E-01   4.000000E-01   4.000000E-01   4.000000E-01   4.000000E-01   4.000000E-01   4.000000E-01   4.000000E-01   4.000000E-01   4.000000E-01   4.000000E-01   4.000000E-01   4.000000E-01   4.000000E-01   4.000000E-01   4.000000E-01   4.000000E-01   4.000000E-01   4.000000E-01   4.000000E-01   4.000000E-01   4.000000E-01   4.000000E-01   4.000000E-01   4.000000E-01   4.000000E-01   4.000000E-01   4.000000E-01   4.000000E-01   4.000000E-01   4.000000E-01   4.000000E-01   4.000000E-01   4.000000E-01   4.000000E-01   4.000000E-01   4.000000E-01   4.000000E-01   4.000000E-01   4.000000E-01   4.000000E-01   4.000000E-01   4.000000E-01   4.000000E-01   4.000000E-01   4.000000E-01   4.000000E-01   4.000000E-01   4.000000E-01   4.000000E-01   4.000000E-01   4.000000E-01   4.000000E-01   4.000000E-01   4.000000E-01   4.000000E-01   4.000000E-01   4.000000E-01   4.000000E-01   4.000000E-01   4.000000E-01   4.000000E-01   4.000000E-01   4.000000E-01   4.000000E-01   4.000000E-01   4.000000E-01   4.000000E-01   4.000000E-01   4.000000E-01   4.000000E-01   4.000000E-01   4.000000E-01   4.000000E-01   4.000000E-01   4.000000E-01   4.000000E-01   4.000000E-01   4.000000E-01   4.000000E-01   4.000000E-01   4.000000E-01   4.000000E-01   4.000000E-01   4.000000E-01   4.000000E-01   4.000000E-01   4.000000E-01   4.000000E-01   4.000000E-01   4.000000E-01   4.000000E-01   4.000000E-01   4.000000E-01   4.000000E-01   4.000000E-01   4.000000E-01   4.000000E-01   4.000000E-01   4.000000E-01   4.000000E-01   4.000000E-01   4.000000E-01   4.000000E-01   4.000000E-01   4.000000E-01   4.000000E-01   4.000000E-01   4.000000E-01   4.000000E-01   4.000000E-01   4.000000E-01   4.000000E-01   4.000000E-01   4.000000E-01   4.000000E-01   4.000000E-01   4.000000E-01   4.000000E-01   4.000000E-01   4.000000E-01   4.000000E-01   4.000000E-01   4.000000E-01   4.000000E-01   4.000000E-01   4.000000E-01   4.000000E-01   4.000000E-01   4.000000E-01   4.000000E-01   4.000000E-01   4.000000E-01   4.000000E-01   4.000000E-01   4.000000E-01   4.000000E-01   4.000000E-01   4.000000E-01   4.000000E-01   4.000000E-01   4.000000E-01   4.000000E-01   4.000000E-01   4.000000E-01   4.000000E-01   4.000000E-01   4.000000E-01   4.000000E-01   4.000000E-01   4.000000E-01   4.000000E-01   4.000000E-01   4.000000E-01   4.000000E-01   4.000000E-01   4.000000E-01   4.000000E-01   4.000000E-01   4.000000E-01   4.000000E-01   4.000000E-01   4.000000E-01   4.000000E-01   4.000000E-01   4.000000E-01   4.000000E-01   4.000000E-01   4.000000E-01   4.000000E-01   4.000000E-01   4.000000E-01   4.000000E-01   4.000000E-01   4.000000E-01   4.000000E-01   4.000000E-01   4.000000E-01   4.000000E-01   4.000000E-01   4.000000E-01   4.000000E-01   4.000000E-01   4.000000E-01   4.000000E-01   4.000000E-01   4.000000E-01   4.000000E-01   4.000000E-01   4.000000E-01   4.000000E-01   4.000000E-01   4.000000E-01   4.000000E-01   4.000000E-01   4.000000E-01   4.000000E-01   4.000000E-01   4.000000E-01   4.000000E-01   4.000000E-01   4.000000E-01   4.000000E-01   4.000000E-01   4.000000E-01   4.000000E-01   4.000000E-01   4.000000E-01   4.000000E-01   4.000000E-01   4.000000E-01   4.000000E-01   4.000000E-01   4.000000E-01   4.000000E-01   4.000000E-01   4.000000E-01   4.000000E-01   4.000000E-01   4.000000E-01   4.000000E-01   4.000000E-01   4.000000E-01   4.000000E-01   4.000000E-01   4.000000E-01   4.000000E-01   4.000000E-01   4.000000E-01   4.000000E-01   4.000000E-01   4.000000E-01   4.000000E-01   4.000000E-01   4.000000E-01   4.000000E-01   4.000000E-01   4.000000E-01   4.000000E-01   4.000000E-01   4.000000E-01   4.000000E-01   4.000000E-01   4.000000E-01   4.000000E-01   4.000000E-01   4.000000E-01   4.000000E-01   4.000000E-01   4.000000E-01   4.000000E-01   4.000000E-01   4.000000E-01   4.000000E-01   4.000000E-01   4.000000E-01   4.000000E-01   4.000000E-01   4.000000E-01   4.000000E-01   4.000000E-01   4.000000E-01   4.000000E-01   4.000000E-01   4.000000E-01   4.000000E-01   4.000000E-01   4.000000E-01   4.000000E-01   4.000000E-01   4.000000E-01   4.000000E-01   4.000000E-01   4.000000E-01   4.000000E-01   4.000000E-01   4.000000E-01   4.000000E-01   4.000000E-01   4.000000E-01   4.000000E-01   4.000000E-01   4.000000E-01   4.000000E-01   4.000000E-01   4.000000E-01   4.000000E-01   4.000000E-01   4.000000E-01   4.000000E-01   4.000000E-01   4.000000E-01   4.000000E-01   4.000000E-01   4.000000E-01   4.000000E-01   4.000000E-01   4.000000E-01   4.000000E-01   4.000000E-01   4.000000E-01   4.000000E-01   4.000000E-01   4.000000E-01   4.000000E-01   4.000000E-01   4.000000E-01   4.000000E-01   4.000000E-01   4.000000E-01   4.000000E-01   4.000000E-01   4.000000E-01   4.000000E-01   4.000000E-01   4.000000E-01   4.000000E-01   4.000000E-01   4.000000E-01   4.000000E-01   4.000000E-01   4.000000E-01   4.000000E-01   4.000000E-01   4.000000E-01   4.000000E-01   4.000000E-01   4.000000E-01   4.000000E-01   4.000000E-01   4.000000E-01   4.000000E-01   4.000000E-01   4.000000E-01   4.000000E-01   4.000000E-01   4.000000E-01   4.000000E-01   4.000000E-01   4.000000E-01   4.000000E-01   4.000000E-01   4.000000E-01   4.000000E-01   4.000000E-01   4.000000E-01   4.000000E-01   4.000000E-01   4.000000E-01   4.000000E-01   4.000000E-01   4.000000E-01   4.000000E-01   4.000000E-01   4.000000E-01   4.000000E-01   4.000000E-01   4.000000E-01   4.000000E-01   4.000000E-01   4.000000E-01   4.000000E-01   4.000000E-01   4.000000E-01   4.000000E-01   4.000000E-01   4.000000E-01   4.000000E-01   4.000000E-01   4.000000E-01   4.000000E-01   4.000000E-01   4.000000E-01   4.000000E-01   4.000000E-01   4.000000E-01   4.000000E-01   4.000000E-01   4.000000E-01   4.000000E-01   4.000000E-01   4.000000E-01   4.000000E-01   4.000000E-01   4.000000E-01   4.000000E-01   4.000000E-01   4.000000E-01   4.000000E-01   4.000000E-01   4.000000E-01   4.000000E-01   4.000000E-01   4.000000E-01   4.000000E-01   4.000000E-01   4.000000E-01   4.000000E-01   4.000000E-01   4.000000E-01   4.000000E-01   4.000000E-01   4.000000E-01   4.000000E-01   4.000000E-01   4.000000E-01   4.000000E-01   4.000000E-01   4.000000E-01   4.000000E-01   4.000000E-01   4.000000E-01   4.000000E-01   4.000000E-01   4.000000E-01   4.000000E-01   4.000000E-01   4.000000E-01   4.000000E-01   4.000000E-01   4.000000E-01   4.000000E-01   4.000000E-01   4.000000E-01   4.000000E-01   4.000000E-01   4.000000E-01   4.000000E-01   4.000000E-01   4.000000E-01   4.000000E-01   4.000000E-01   4.000000E-01   4.000000E-01   4.000000E-01   4.000000E-01   4.000000E-01   4.000000E-01   4.000000E-01   4.000000E-01   4.000000E-01   4.000000E-01   4.000000E-01   4.000000E-01   4.000000E-01   4.000000E-01   4.000000E-01   4.000000E-01   4.000000E-01   4.000000E-01   4.000000E-01   4.000000E-01   4.000000E-01   4.000000E-01   4.000000E-01   4.000000E-01   4.000000E-01   4.000000E-01   4.000000E-01   4.000000E-01   4.000000E-01   4.000000E-01   4.000000E-01   4.000000E-01   4.000000E-01   4.000000E-01   4.000000E-01   4.000000E-01   4.000000E-01   4.000000E-01   4.000000E-01   4.000000E-01   4.000000E-01   4.000000E-01   4.000000E-01   4.000000E-01   4.000000E-01   4.000000E-01   4.000000E-01   4.000000E-01   4.000000E-01   4.000000E-01   4.000000E-01   4.000000E-01   4.000000E-01   4.000000E-01   4.000000E-01   4.000000E-01   4.000000E-01   4.000000E-01   4.000000E-01   4.000000E-01   4.000000E-01   4.000000E-01   4.000000E-01   4.000000E-01   4.000000E-01   4.000000E-01   4.000000E-01   4.000000E-01   4.000000E-01   4.000000E-01   4.000000E-01   4.000000E-01   4.000000E-01   4.000000E-01   4.000000E-01   4.000000E-01   4.000000E-01   4.000000E-01   4.000000E-01   4.000000E-01   4.000000E-01   4.000000E-01   4.000000E-01   4.000000E-01   4.000000E-01   4.000000E-01   4.000000E-01   4.000000E-01   4.000000E-01   4.000000E-01   4.000000E-01   4.000000E-01   4.000000E-01   4.000000E-01   4.000000E-01   4.000000E-01   4.000000E-01   4.000000E-01   4.000000E-01   4.000000E-01   4.000000E-01   4.000000E-01   4.000000E-01   4.000000E-01   4.000000E-01   4.000000E-01   4.000000E-01   4.000000E-01   4.000000E-01   4.000000E-01   4.000000E-01   4.000000E-01   4.000000E-01   4.000000E-01   4.000000E-01   4.000000E-01   4.000000E-01   4.000000E-01   4.000000E-01   4.000000E-01   4.000000E-01   4.000000E-01   4.000000E-01   4.000000E-01   4.000000E-01   4.000000E-01   4.000000E-01   4.000000E-01   4.000000E-01   4.000000E-01   4.000000E-01   4.000000E-01   4.000000E-01   4.000000E-01   4.000000E-01   4.000000E-01   4.000000E-01   4.000000E-01   4.000000E-01   4.000000E-01   4.000000E-01   4.000000E-01   4.000000E-01   4.000000E-01   4.000000E-01   4.000000E-01   4.000000E-01   4.000000E-01   4.000000E-01   4.000000E-01   4.000000E-01   4.000000E-01   4.000000E-01   4.000000E-01   4.000000E-01   4.000000E-01   4.000000E-01   4.000000E-01   4.000000E-01   4.000000E-01   4.000000E-01   4.000000E-01   4.000000E-01   4.000000E-01   4.000000E-01   4.000000E-01   4.000000E-01   4.000000E-01   4.000000E-01   4.000000E-01   4.000000E-01   4.000000E-01   4.000000E-01   4.000000E-01   4.000000E-01   4.000000E-01   4.000000E-01   4.000000E-01   4.000000E-01   4.000000E-01   4.000000E-01   4.000000E-01   4.000000E-01   4.000000E-01   4.000000E-01   4.000000E-01   4.000000E-01   4.000000E-01   4.000000E-01   4.000000E-01   4.000000E-01   4.000000E-01   4.000000E-01   4.000000E-01   4.000000E-01   4.000000E-01   4.000000E-01   4.000000E-01   4.000000E-01   4.000000E-01   4.000000E-01   4.000000E-01   4.000000E-01   4.000000E-01   4.000000E-01   4.000000E-01   4.000000E-01   4.000000E-01   4.000000E-01   4.000000E-01   4.000000E-01   4.000000E-01   4.000000E-01   4.000000E-01   4.000000E-01   4.000000E-01   4.000000E-01   4.000000E-01   4.000000E-01   4.000000E-01   4.000000E-01   4.000000E-01   4.000000E-01   4.000000E-01   4.000000E-01   4.000000E-01   4.000000E-01   4.000000E-01   4.000000E-01   4.000000E-01   4.000000E-01   4.000000E-01   4.000000E-01   4.000000E-01   4.000000E-01   4.000000E-01   4.000000E-01   4.000000E-01   4.000000E-01   4.000000E-01   4.000000E-01   4.000000E-01   4.000000E-01   4.000000E-01   4.000000E-01   4.000000E-01   4.000000E-01   4.000000E-01   4.000000E-01   4.000000E-01   4.000000E-01   4.000000E-01   4.000000E-01   4.000000E-01   4.000000E-01   4.000000E-01   4.000000E-01   4.000000E-01   4.000000E-01   4.000000E-01   4.000000E-01   4.000000E-01   4.000000E-01   4.000000E-01   4.000000E-01   4.000000E-01   4.000000E-01   4.000000E-01   4.000000E-01   4.000000E-01   4.000000E-01   4.000000E-01   4.000000E-01   4.000000E-01   4.000000E-01   4.000000E-01   4.000000E-01   4.000000E-01   4.000000E-01   4.000000E-01   4.000000E-01   4.000000E-01   4.000000E-01   4.000000E-01   4.000000E-01   4.000000E-01   4.000000E-01   4.000000E-01   4.000000E-01   4.000000E-01   4.000000E-01   4.000000E-01   4.000000E-01   4.000000E-01   4.000000E-01   4.000000E-01   4.000000E-01   4.000000E-01   4.000000E-01   4.000000E-01   4.000000E-01   4.000000E-01   4.000000E-01   4.000000E-01   4.000000E-01   4.000000E-01   4.000000E-01   4.000000E-01   4.000000E-01   4.000000E-01   4.000000E-01   4.000000E-01   4.000000E-01   4.000000E-01   4.000000E-01   4.000000E-01   4.000000E-01   4.000000E-01   4.000000E-01   4.000000E-01   4.000000E-01   4.000000E-01   4.000000E-01   4.000000E-01   4.000000E-01   4.000000E-01   4.000000E-01   4.000000E-01   4.000000E-01   4.000000E-01   4.000000E-01   4.000000E-01   4.000000E-01   4.000000E-01   4.000000E-01   4.000000E-01   4.000000E-01   4.000000E-01   4.000000E-01   4.000000E-01   4.000000E-01   4.000000E-01   4.000000E-01   4.000000E-01   4.000000E-01   4.000000E-01   4.000000E-01   4.000000E-01   4.000000E-01   4.000000E-01   4.000000E-01   4.000000E-01   4.000000E-01   4.000000E-01   4.000000E-01   4.000000E-01   4.000000E-01   4.000000E-01   4.000000E-01   4.000000E-01   4.000000E-01   4.000000E-01   4.000000E-01   4.000000E-01   4.000000E-01   4.000000E-01   4.000000E-01   4.000000E-01   4.000000E-01   4.000000E-01   4.000000E-01   4.000000E-01   4.000000E-01   4.000000E-01   4.000000E-01   4.000000E-01   4.000000E-01   4.000000E-01   4.000000E-01   4.000000E-01   4.000000E-01   4.000000E-01   4.000000E-01   4.000000E-01   4.000000E-01   4.000000E-01   4.000000E-01   4.000000E-01   4.000000E-01   4.000000E-01   4.000000E-01   4.000000E-01   4.000000E-01   4.000000E-01   4.000000E-01   4.000000E-01   4.000000E-01   4.000000E-01   4.000000E-01   4.000000E-01   4.000000E-01   4.000000E-01   4.000000E-01   4.000000E-01   4.000000E-01   4.000000E-01   4.000000E-01   4.000000E-01   4.000000E-01   4.000000E-01   4.000000E-01   4.000000E-01   4.000000E-01   4.000000E-01   4.000000E-01   4.000000E-01   4.000000E-01   4.000000E-01   4.000000E-01   4.000000E-01   4.000000E-01   4.000000E-01   4.000000E-01   4.000000E-01   4.000000E-01   4.000000E-01   4.000000E-01   4.000000E-01   4.000000E-01   4.000000E-01   4.000000E-01   4.000000E-01   4.000000E-01   4.000000E-01   4.000000E-01   4.000000E-01   4.000000E-01   4.000000E-01   4.000000E-01   4.000000E-01   4.000000E-01   4.000000E-01   4.000000E-01   4.000000E-01   4.000000E-01   4.000000E-01   4.000000E-01   4.000000E-01   4.000000E-01   4.000000E-01   4.000000E-01   4.000000E-01   4.000000E-01   4.000000E-01   4.000000E-01   4.000000E-01   4.000000E-01   4.000000E-01   4.000000E-01   4.000000E-01   4.000000E-01   4.000000E-01   4.000000E-01   4.000000E-01   4.000000E-01   4.000000E-01   4.000000E-01   4.000000E-01   4.000000E-01   4.000000E-01   4.000000E-01   4.000000E-01   4.000000E-01   4.000000E-01   4.000000E-01   4.000000E-01   4.000000E-01   4.000000E-01   4.000000E-01   4.000000E-01   4.000000E-01   4.000000E-01   4.000000E-01   4.000000E-01   4.000000E-01   4.000000E-01   4.000000E-01   4.000000E-01   4.000000E-01   4.000000E-01   4.000000E-01   4.000000E-01   4.000000E-01   4.000000E-01   4.000000E-01   4.000000E-01   4.000000E-01   4.000000E-01   4.000000E-01   4.000000E-01   4.000000E-01   4.000000E-01   4.000000E-01   4.000000E-01   4.000000E-01   4.000000E-01   4.000000E-01   4.000000E-01   4.000000E-01   4.000000E-01   4.000000E-01   4.000000E-01   4.000000E-01   4.000000E-01   4.000000E-01   4.000000E-01   4.000000E-01   4.000000E-01   4.000000E-01   4.000000E-01   4.000000E-01   4.000000E-01   4.000000E-01   4.000000E-01   4.000000E-01   4.000000E-01   4.000000E-01   4.000000E-01   4.000000E-01   4.000000E-01   4.000000E-01   4.000000E-01   4.000000E-01   4.000000E-01   4.000000E-01   4.000000E-01   4.000000E-01   4.000000E-01   4.000000E-01   4.000000E-01   4.000000E-01   4.000000E-01   4.000000E-01   4.000000E-01   4.000000E-01   4.000000E-01   4.000000E-01   4.000000E-01   4.000000E-01   4.000000E-01   4.000000E-01   4.000000E-01   4.000000E-01   4.000000E-01   4.000000E-01   4.000000E-01   4.000000E-01   4.000000E-01   4.000000E-01   4.000000E-01   4.000000E-01   4.000000E-01   4.000000E-01   4.000000E-01   4.000000E-01   4.000000E-01   4.000000E-01   4.000000E-01   4.000000E-01   4.000000E-01   4.000000E-01   4.000000E-01   4.000000E-01   4.000000E-01   4.000000E-01   4.000000E-01   4.000000E-01   4.000000E-01   4.000000E-01   4.000000E-01   4.000000E-01   4.000000E-01   4.000000E-01   4.000000E-01   4.000000E-01   4.000000E-01   4.000000E-01   4.000000E-01   4.000000E-01   4.000000E-01   4.000000E-01   4.000000E-01   4.000000E-01   4.000000E-01   4.000000E-01   4.000000E-01   4.000000E-01   4.000000E-01   4.000000E-01   4.000000E-01   4.000000E-01   4.000000E-01   4.000000E-01   4.000000E-01   