<?xml version="1.0"?>
<!-- Time =  2.8999776260279337E+00s -->
<VTKFile type="PolyData" version="0.1" byte_order="LittleEndian">
<PolyData>
<Piece NumberOfPoints="0000002400" NumberOfVerts="0" NumberOfLines="0" NumberOfStrips="0" NumberOfPolys="0">
<Points>
<DataArray type="Float32" Name="Position" NumberOfComponents="3" format="ascii">
  4.038152E+00   2.017200E-01   2.370915E-01   9.865589E+00   2.138276E+01   2.253245E+00   4.052889E+00   2.053621E-01   2.079890E+00   5.546156E+00   8.783730E+00   2.356053E+00   1.276575E+01   7.291112E+00   2.516387E+00   7.083972E+00   5.603893E+00   4.699568E+00   9.173261E+00   1.144742E+01   2.499820E+00   9.172672E+00   1.999821E+00   3.566740E+00   4.617061E+00   1.188172E+00   2.159904E+00   1.010961E+00   5.611774E-01   2.298219E+00   4.277189E+00   3.568873E-01   4.675049E+00   2.075568E+00   5.807583E-01   4.325284E+00   8.322629E+00   6.445455E+00   1.530623E+00   6.841781E+00   2.106449E-01   5.832077E-01   7.022089E+00   2.124993E+01   5.673928E-01   5.409270E+00   1.227253E+00   1.996291E+00   1.209238E+01   8.210916E-01   1.386295E+00   7.333135E+00   6.852479E+00   2.622690E+00   7.450697E+00   9.570581E-01   2.846343E+00   1.273123E+01   3.701224E+00   2.081066E+00   1.063440E+01   1.678464E+01   4.457610E+00   1.171174E+01   8.749501E-01   2.497134E+00   6.688531E+00   8.168641E-01   2.070329E+00   1.378264E+01   1.594577E+01   4.569472E-01   4.689106E+00   1.313820E+00   4.504230E+00   4.093832E+00   9.462881E-01   7.875581E-01   6.186474E+00   4.226861E+00   4.130499E+00   8.758448E+00   3.849262E-01   2.238868E+00   7.816540E+00   1.581752E+00   4.967066E+00   1.110768E+01   3.214419E+00   1.466496E+00   3.947057E+00   8.801650E-01   2.434634E+00   4.582114E+00   1.061089E+01   1.273562E+00   6.765062E+00   2.087220E+01   1.521497E+00   1.376803E+01   1.637173E+00   7.259807E-01   7.023697E+00   3.542530E-01   9.550884E-01   5.913482E+00   2.017031E-01   2.512507E+00   4.723804E+00   4.342782E+00   7.931632E-01   1.470920E+01   5.720249E-01   3.819163E+00   6.094739E-01   6.787255E-01   3.062353E+00   5.734837E+00   3.800025E+00   9.408808E-01   9.888134E+00   1.175406E+01   8.655921E-01   3.051321E+00   3.629521E+00   2.564710E+00   1.174830E+01   1.163245E+01   1.857716E+00   1.362432E+00   6.609707E-01   8.166304E-01   3.392682E+00   5.086192E-01   9.038005E-01   7.024685E+00   3.814258E-01   2.066165E-01   6.262608E+00   4.925130E-01   4.499173E+00   8.421301E+00   1.241192E+01   3.028855E+00   1.034601E+01   2.117602E-01   1.934716E+00   9.202306E+00   2.767358E-01   4.371188E+00   6.798455E+00   9.872289E-01   2.450808E+00   7.033466E+00   3.784141E+00   2.143406E+00   1.073520E+00   2.287960E+01   4.499069E+00   9.775723E+00   2.018374E+00   2.064300E+00   1.297070E+00   1.789118E+00   2.225668E+00   1.086533E+01   3.668628E+00   2.155647E+00   7.189079E+00   5.394363E+00   1.851906E+00   1.483494E+00   1.897239E+00   1.833179E+00   5.670710E+00   5.752867E-01   2.111329E-01   1.114989E+01   4.159786E-01   1.439515E+00   4.182726E+00   1.472205E+01   2.836707E+00   1.022855E+01   7.664193E+00   4.533472E+00   7.062672E+00   3.446084E+00   1.635209E+00   8.665008E+00   7.047788E+00   1.768805E+00   4.364267E+00   4.421158E-01   2.004813E-01   7.758384E+00   1.091746E+00   1.536667E+00   6.755249E+00   2.641248E+00   3.711801E+00   5.268257E+00   2.242438E+00   4.883276E+00   1.615675E+00   8.261075E-01   5.086295E-01   4.139073E+00   6.439233E-01   4.675469E-01   9.265129E+00   1.042423E+01   2.699461E+00   8.347027E+00   1.304320E+01   1.138769E+00   1.443833E+00   1.321951E+01   2.562531E+00   6.041980E+00   1.585297E+01   1.908550E+00   2.611195E+00   9.642102E-01   1.071692E+00   1.477257E+01   5.778089E-01   1.898749E+00   2.351801E+00   6.171082E+00   3.910158E+00   1.102876E+01   9.221001E-01   1.293684E+00   5.691841E+00   4.921972E+00   4.330453E+00   7.033432E-01   6.715448E-01   8.295698E-01   8.777534E+00   9.118081E-01   7.388585E-01   1.314310E+01   4.575842E+00   1.551282E+00   1.074082E+00   5.963758E-01   4.672045E+00   2.273682E+00   1.970751E-01   3.350613E+00   2.803436E+00   1.148727E+01   1.102130E+00   2.204053E-01   5.472057E-01   3.053177E+00   6.362525E+00   1.145822E+00   3.572764E+00   7.753595E-01   5.439558E+00   4.025681E+00   2.018279E-01   8.876902E-01   3.277370E-01   8.323495E+00   2.530170E-01   2.381440E+00   7.140599E+00   1.107401E+01   2.995281E+00   5.068102E+00   4.456022E+00   2.065334E+00   3.104440E+00   2.089750E+00   1.708490E+00   8.366129E+00   1.147069E+00   2.059233E+00   9.955342E+00   9.899400E+00   2.248283E+00   3.963969E+00   7.830638E+00   1.030257E+00   3.498764E+00   1.240346E+00   3.543260E+00   2.923556E-01   5.254905E-01   4.974025E+00   2.951169E+00   7.533998E-01   6.880903E-01   1.956227E+00   2.173245E-01   4.179067E+00   9.986189E+00   2.896919E+00   1.324533E+00   5.733247E+00   7.333767E+00   3.837324E+00   6.087735E+00   3.462164E+00   3.826882E-01   1.113827E+00   1.045338E+00   1.562794E+00   6.395146E+00   2.003879E-01   2.481944E+00   5.324605E+00   2.025182E-01   3.799858E+00   2.328004E+00   5.814589E-01   6.087381E-01   5.544004E+00   1.994533E-01   6.087695E-01   3.121862E+00   2.054437E-01   6.829260E-01   1.454246E+01   2.481178E+01   3.441600E+00   4.305470E+00   1.779769E+01   2.821512E+00   1.116656E+01   6.398110E-01   4.570196E+00   9.163944E+00   6.523437E+00   3.330989E+00   5.735600E+00   1.042902E+00   2.222098E+00   1.245649E+00   2.003029E-01   2.082999E+00   5.176541E+00   1.139291E+01   4.770761E-01   6.910243E+00   2.266580E-01   3.015631E+00   9.503961E-01   1.971678E-01   1.333222E+00   8.051900E+00   9.109669E-01   2.543482E-01   1.401713E+01   2.858090E+00   4.839399E+00   5.220478E-01   2.083872E+00   4.916130E+00   1.180329E+01   1.788154E+01   4.770851E+00   2.054177E+00   4.928192E-01   2.913228E+00   6.491907E+00   3.062298E+00   1.915451E+00   3.036007E+00   1.518942E+01   2.494630E+00   1.148030E+00   6.056746E-01   3.032078E+00   1.313822E+01   1.367511E+00   6.075823E-01   3.486515E+00   2.021742E-01   3.939507E+00   1.511389E+00   4.787453E-01   4.013215E+00   3.296004E-01   5.672410E-01   3.453481E+00   6.056752E+00   1.069356E+00   7.578490E-01   4.732823E+00   2.153818E+00   4.132624E+00   8.908314E+00   8.738888E+00   7.606269E-01   2.372599E-01   9.734525E-01   3.070540E+00   9.848696E+00   8.781506E+00   4.533068E+00   2.800554E+00   2.039711E-01   9.352816E-01   1.955331E+00   2.426150E+00   2.801618E+00   9.929424E+00   1.970340E+00   3.920506E+00   1.281831E+01   8.777881E-01   1.714588E+00   4.823960E+00   5.490475E-01   2.034657E+00   1.162692E+00   7.058030E-01   1.954112E+00   1.317885E+01   2.694568E-01   4.687930E+00   8.380352E+00   3.364130E-01   1.223392E+00   5.104771E+00   2.099966E-01   2.186794E+00   1.220719E+01   7.891760E-01   4.664455E+00   1.120176E+01   1.271300E+01   4.024899E+00   3.368274E+00   1.408082E+01   3.258598E+00   1.002975E+01   1.059090E+01   1.675518E+00   5.006392E+00   9.093389E-01   3.281330E+00   5.178364E+00   1.393486E+01   4.166678E+00   1.218372E+01   6.759448E+00   2.345625E+00   7.082117E+00   1.884912E+00   4.251801E+00   1.173506E+01   7.127212E-01   2.390225E-01   2.772614E+00   1.988539E-01   1.338155E+00   5.516674E+00   1.108295E+01   3.781375E+00   4.153622E+00   2.382043E+00   3.613837E+00   6.314713E+00   2.056593E-01   1.718175E+00   7.789097E+00   9.276886E+00   3.985804E-01   5.266507E+00   1.960938E+01   2.686962E-01   9.334251E+00   7.311455E-01   3.171414E+00   2.164290E+00   1.584382E+01   2.885182E+00   5.236116E-01   4.753383E-01   2.191002E-01   2.670480E+00   2.081339E-01   2.080567E-01   4.377819E+00   1.991652E-01   1.828417E+00   4.696105E-01   2.042928E-01   5.996690E-01   9.199357E+00   6.491537E+00   1.332397E+00   9.782475E+00   5.096493E-01   3.053081E+00   2.807967E+00   2.662677E-01   2.734115E+00   8.699779E+00   6.479782E+00   4.130929E+00   8.389933E+00   7.754142E-01   4.959986E+00   4.300020E-01   3.440680E+00   8.132104E-01   1.131877E+00   2.670530E+00   4.039183E+00   2.264398E+00   7.748689E+00   7.047863E-01   5.317073E+00   5.280356E-01   4.497274E+00   5.593224E+00   1.971128E+00   5.972193E-01   8.364349E-01   1.221340E+00   2.737827E+00   1.272050E+01   1.160377E+01   1.907578E+00   1.260845E+01   3.123551E-01   1.425897E+00   6.876637E+00   8.332843E-01   2.810644E+00   4.362599E+00   7.631468E+00   3.118981E+00   5.639909E+00   5.349354E+00   2.954990E+00   1.330747E+01   9.337412E+00   4.131738E+00   1.313330E+01   5.637017E-01   4.891854E-01   1.654458E+00   1.981651E-01   2.163053E-01   4.590861E+00   6.035947E-01   4.891002E+00   3.765840E+00   2.464301E+00   2.543254E+00   6.265821E+00   7.058227E-01   6.991450E-01   1.407677E+01   7.976882E-01   5.077071E-01   7.524533E+00   4.468413E+00   1.645555E+00   6.669361E-01   2.263087E-01   4.315367E+00   1.212627E+01   1.197903E+00   2.006017E+00   1.457760E+01   8.044213E-01   4.355797E+00   3.783296E+00   5.371869E-01   3.473072E+00   5.725665E+00   1.999650E-01   4.128266E+00   4.683434E+00   1.997507E-01   2.002309E-01   3.519413E+00   1.236171E+00   2.019464E+00   7.972570E+00   1.997540E+00   1.912313E+00   5.674863E+00   1.535946E+00   1.545789E+00   8.528385E+00   5.832838E-01   4.525367E+00   4.823274E+00   1.358598E+01   3.516150E+00   1.452616E+01   4.511949E+00   3.085583E+00   3.508406E+00   8.766145E-01   4.556643E+00   1.291500E+01   1.119701E+01   2.687805E+00   1.059212E+01   9.624363E+00   7.795822E-01   4.226340E+00   5.383433E-01   3.825400E+00   9.001567E+00   1.372256E+01   1.456025E+00   6.251539E+00   8.764852E-01   2.584210E+00   8.009690E+00   1.772592E+00   4.091195E+00   7.975314E+00   3.064301E+00   6.217844E-01   7.611377E+00   3.384490E+00   4.800994E+00   3.605109E+00   9.719024E-01   2.439947E-01   6.367821E-01   1.302090E+01   4.791955E+00   8.324673E+00   1.477952E+00   3.222958E+00   6.951066E+00   3.742013E+00   4.975361E+00   5.839356E+00   3.931701E+00  
[...]
<PointData Scalars="Diameter" Vectors="Velocity">
<DataArray type="Float32" Name="Diameter" format="ascii">
  4.000000E-01   4.000000E-01   4.000000E-01   4.000000E-01   4.000000E-01   4.000000E-01   4.000000E-01   4.000000E-01   4.000000E-01   4.000000E-01   4.000000E-01   4.000000E-01   4.000000E-01   4.000000E-01   4.000000E-01   4.000000E-01   4.000000E-01   4.000000E-01   4.000000E-01   4.000000E-01   4.000000E-01   4.000000E-01   4.000000E-01   4.000000E-01   4.000000E-01   4.000000E-01   4.000000E-01   4.000000E-01   4.000000E-01   4.000000E-01   4.000000E-01   4.000000E-01   4.000000E-01   4.000000E-01   4.000000E-01   4.000000E-01   4.000000E-01   4.000000E-01   4.000000E-01   4.000000E-01   4.000000E-01   4.000000E-01   4.000000E-01   4.000000E-01   4.000000E-01   4.000000E-01   4.000000E-01   4.000000E-01   4.000000E-01   4.000000E-01   4.000000E-01   4.000000E-01   4.000000E-01   4.000000E-01   4.000000E-01   4.000000E-01   4.000000E-01   4.000000E-01   4.000000E-01   4.000000E-01   4.000000E-01   4.000000E-01   4.000000E-01   4.000000E-01   4.000000E-01   4.000000E-01   4.000000E-01   4.000000E-01   4.000000E-01   4.000000E-01   4.000000E-01   4.000000E-01   4.000000E-01   4.000000E-01   4.000000E-01   4.000000E-01   4.000000E-01   4.000000E-01   4.000000E-01   4.000000E-01   4.000000E-01   4.000000E-01   4.000000E-01   4.000000E-01   4.000000E-01   4.000000E-01   4.000000E-01   4.000000E-01   4.000000E-01   4.000000E-01   4.000000E-01   4.000000E-01   4.000000E-01   4.000000E-01   4.000000E-01   4.000000E-01   4.000000E-01   4.000000E-01   4.000000E-01   4.000000E-01   4.000000E-01   4.000000E-01   4.000000E-01   4.000000E-01   4.000000E-01   4.000000E-01   4.000000E-01   4.000000E-01   4.000000E-01   4.000000E-01   4.000000E-01   4.000000E-01   4.000000E-01   4.000000E-01   4.000000E-01   4.000000E-01   4.000000E-01   4.000000E-01   4.000000E-01   4.000000E-01   4.000000E-01   4.000000E-01   4.000000E-01   4.000000E-01   4.000000E-01   4.000000E-01   4.000000E-01   4.000000E-01   4.000000E-01   4.000000E-01   4.000000E-01   4.000000E-01   4.000000E-01   4.000000E-01   4.000000E-01   4.000000E-01   4.000000E-01   4.000000E-01   4.000000E-01   4.000000E-01   4.000000E-01   4.000000E-01   4.000000E-01   4.000000E-01   4.000000E-01   4.000000E-01   4.000000E-01   4.000000E-01   4.000000E-01   4.000000E-01   4.000000E-01   4.000000E-01   4.000000E-01   4.000000E-01   4.000000E-01   4.000000E-01   4.000000E-01   4.000000E-01   4.000000E-01   4.000000E-01   4.000000E-01   4.000000E-01   4.000000E-01   4.000000E-01   4.000000E-01   4.000000E-01   4.000000E-01   4.000000E-01   4.000000E-01   4.000000E-01   4.000000E-01   4.000000E-01   4.000000E-01   4.000000E-01   4.000000E-01   4.000000E-01   4.000000E-01   4.000000E-01   4.000000E-01   4.000000E-01   4.000000E-01   4.000000E-01   4.000000E-01   4.000000E-01   4.000000E-01   4.000000E-01   4.000000E-01   4.000000E-01   4.000000E-01   4.000000E-01   4.000000E-01   4.000000E-01   4.000000E-01   4.000000E-01   4.000000E-01   4.000000E-01   4.000000E-01   4.000000E-01   4.000000E-01   4.000000E-01   4.000000E-01   4.000000E-01   4.000000E-01   4.000000E-01   4.000000E-01   4.000000E-01   4.000000E-01   4.000000E-01   4.000000E-01   4.000000E-01   4.000000E-01   4.000000E-01   4.000000E-01   4.000000E-01   4.000000E-01   4.000000E-01   4.000000E-01   4.000000E-01   4.000000E-01   4.000000E-01   4.000000E-01   4.000000E-01   4.000000E-01   4.000000E-01   4.000000E-01   4.000000E-01   4.000000E-01   4.000000E-01   4.000000E-01   4.000000E-01   4.000000E-01   4.000000E-01   4.000000E-01   4.000000E-01   4.000000E-01   4.000000E-01   4.000000E-01   4.000000E-01   4.000000E-01   4.000000E-01   4.000000E-01   4.000000E-01   4.000000E-01   4.000000E-01   4.000000E-01   4.000000E-01   4.000000E-01   4.000000E-01   4.000000E-01   4.000000E-01   4.000000E-01   4.000000E-01   4.000000E-01   4.000000E-01   4.000000E-01   4.000000E-01   4.000000E-01   4.000000E-01   4.000000E-01   4.000000E-01   4.000000E-01   4.000000E-01   4.000000E-01   4.000000E-01   4.000000E-01   4.000000E-01   4.000000E-01   4.000000E-01   4.000000E-01   4.000000E-01   4.000000E-01   4.000000E-01   4.000000E-01   4.000000E-01   4.000000E-01   4.000000E-01   4.000000E-01   4.000000E-01   4.000000E-01   4.000000E-01   4.000000E-01   4.000000E-01   4.000000E-01   4.000000E-01   4.000000E-01   4.000000E-01   4.000000E-01   4.000000E-01   4.000000E-01   4.000000E-01   4.000000E-01   4.000000E-01   4.000000E-01   4.000000E-01   4.000000E-01   4.000000E-01   4.000000E-01   4.000000E-01   4.000000E-01   4.000000E-01   4.000000E-01   4.000000E-01   4.000000E-01   4.000000E-01   4.000000E-01   4.000000E-01   4.000000E-01   4.000000E-01   4.000000E-01   4.000000E-01   4.000000E-01   4.000000E-01   4.000000E-01   4.000000E-01   4.000000E-01   4.000000E-01   4.000000E-01   4.000000E-01   4.000000E-01   4.000000E-01   4.000000E-01   4.000000E-01   4.000000E-01   4.000000E-01   4.000000E-01   4.000000E-01   4.000000E-01   4.000000E-01   4.000000E-01   4.000000E-01   4.000000E-01   4.000000E-01   4.000000E-01   4.000000E-01   4.000000E-01   4.000000E-01   4.000000E-01   4.000000E-01   4.000000E-01   4.000000E-01   4.000000E-01   4.000000E-01   4.000000E-01   4.000000E-01   4.000000E-01   4.000000E-01   4.000000E-01   4.000000E-01   4.000000E-01   4.000000E-01   4.000000E-01   4.000000E-01   4.000000E-01   4.000000E-01   4.000000E-01   4.000000E-01   4.000000E-01   4.000000E-01   4.000000E-01   4.000000E-01   4.000000E-01   4.000000E-01   4.000000E-01   4.000000E-01   4.000000E-01   4.000000E-01   4.000000E-01   4.000000E-01   4.000000E-01   4.000000E-01   4.000000E-01   4.000000E-01   4.000000E-01   4.000000E-01   4.000000E-01   4.000000E-01   4.000000E-01   4.000000E-01   4.000000E-01   4.000000E-01   4.000000E-01   4.000000E-01   4.000000E-01   4.000000E-01   4.000000E-01   4.000000E-01   4.000000E-01   4.000000E-01   4.000000E-01   4.000000E-01   4.000000E-01   4.000000E-01   4.000000E-01   4.000000E-01   4.000000E-01   4.000000E-01   4.000000E-01   4.000000E-01   4.000000E-01   4.000000E-01   4.000000E-01   4.000000E-01   4.000000E-01   4.000000E-01   4.000000E-01   4.000000E-01   4.000000E-01   4.000000E-01   4.000000E-01   4.000000E-01   4.000000E-01   4.000000E-01   4.000000E-01   4.000000E-01   4.000000E-01   4.000000E-01   4.000000E-01   4.000000E-01   4.000000E-01   4.000000E-01   4.000000E-01   4.000000E-01   4.000000E-01   4.000000E-01   4.000000E-01   4.000000E-01   4.000000E-01   4.000000E-01   4.000000E-01   4.000000E-01   4.000000E-01   4.000000E-01   4.000000E-01   4.000000E-01   4.000000E-01   4.000000E-01   4.000000E-01   4.000000E-01   4.000000E-01   4.000000E-01   4.000000E-01   4.000000E-01   4.000000E-01   4.000000E-01   4.000000E-01   4.000000E-01   4.000000E-01   4.000000E-01   4.000000E-01   4.000000E-01   4.000000E-01   4.000000E-01   4.000000E-01   4.000000E-01   4.000000E-01   4.000000E-01   4.000000E-01   4.000000E-01   4.000000E-01   4.000000E-01   4.000000E-01   4.000000E-01   4.000000E-01   4.000000E-01   4.000000E-01   4.000000E-01   4.000000E-01   4.000000E-01   4.000000E-01   4.000000E-01   4.000000E-01   4.000000E-01   4.000000E-01   4.000000E-01   4.000000E-01   4.000000E-01   4.000000E-01   4.000000E-01   4.000000E-01   4.000000E-01   4.000000E-01   4.000000E-01   4.000000E-01   4.000000E-01   4.000000E-01   4.000000E-01   4.000000E-01   4.000000E-01   4.000000E-01   4.000000E-01   4.000000E-01   4.000000E-01   4.000000E-01   4.000000E-01   4.000000E-01   4.000000E-01   4.000000E-01   4.000000E-01   4.000000E-01   4.000000E-01   4.000000E-01   4.000000E-01   4.000000E-01   4.000000E-01   4.000000E-01   4.000000E-01   4.000000E-01   4.000000E-01   4.000000E-01   4.000000E-01   4.000000E-01   4.000000E-01   4.000000E-01   4.000000E-01   4.000000E-01   4.000000E-01   4.000000E-01   4.000000E-01   4.000000E-01   4.000000E-01   4.000000E-01   4.000000E-01   4.000000E-01   4.000000E-01   4.000000E-01   4.000000E-01   4.000000E-01   4.000000E-01   4.000000E-01   4.000000E-01   4.000000E-01   4.000000E-01   4.000000E-01   4.000000E-01   4.000000E-01   4.000000E-01   4.000000E-01   4.000000E-01   4.000000E-01   4.000000E-01   4.000000E-01   4.000000E-01   4.000000E-01   4.000000E-01   4.000000E-01   4.000000E-01   4.000000E-01   4.000000E-01   4.000000E-01   4.000000E-01   4.000000E-01   4.000000E-01   4.000000E-01   4.000000E-01   4.000000E-01   4.000000E-01   4.000000E-01   4.000000E-01   4.000000E-01   4.000000E-01   4.000000E-01   4.000000E-01   4.000000E-01   4.000000E-01   4.000000E-01   4.000000E-01   4.000000E-01   4.000000E-01   4.000000E-01   4.000000E-01   4.000000E-01   4.000000E-01   4.000000E-01   4.000000E-01   4.000000E-01   4.000000E-01   4.000000E-01   4.000000E-01   4.000000E-01   4.000000E-01   4.000000E-01   4.000000E-01   4.000000E-01   4.000000E-01   4.000000E-01   4.000000E-01   4.000000E-01   4.000000E-01   4.000000E-01   4.000000E-01   4.000000E-01   4.000000E-01   4.000000E-01   4.000000E-01   4.000000E-01   4.000000E-01   4.000000E-01   4.000000E-01   4.000000E-01   4.000000E-01   4.000000E-01   4.000000E-01   4.000000E-01   4.000000E-01   4.000000E-01   4.000000E-01   4.000000E-01   4.000000E-01   4.000000E-01   4.000000E-01   4.000000E-01   4.000000E-01   4.000000E-01   4.000000E-01   4.000000E-01   4.000000E-01   4.000000E-01   4.000000E-01   4.000000E-01   4.000000E-01   4.000000E-01   4.000000E-01   4.000000E-01   4.000000E-01   4.000000E-01   4.000000E-01   4.000000E-01   4.000000E-01   4.000000E-01   4.000000E-01   4.000000E-01   4.000000E-01   4.000000E-01   4.000000E-01   4.000000E-01   4.000000E-01   4.000000E-01   4.000000E-01   4.000000E-01   4.000000E-01   4.000000E-01   4.000000E-01   4.000000E-01   4.000000E-01   4.000000E-01   4.000000E-01   4.000000E-01   4.000000E-01   4.000000E-01   4.000000E-01   4.000000E-01   4.000000E-01   4.000000E-01   4.000000E-01   4.000000E-01   4.000000E-01   4.000000E-01   4.000000E-01   4.000000E-01   4.000000E-01   4.000000E-01   4.000000E-01   4.000000E-01   4.000000E-01   4.000000E-01   4.000000E-01   4.000000E-01   4.000000E-01   4.000000E-01   4.000000E-01   4.000000E-01   4.000000E-01   4.000000E-01   4.000000E-01   4.000000E-01   4.000000E-01   4.000000E-01   4.000000E-01   4.000000E-01   4.000000E-01   4.000000E-01   4.000000E-01   4.000000E-01   4.000000E-01   4.000000E-01   4.000000E-01   4.000000E-01   4.000000E-01   4.000000E-01   4.000000E-01   4.000000E-01   4.000000E-01   4.000000E-01   4.000000E-01   4.000000E-01   4.000000E-01   4.000000E-01   4.000000E-01   4.000000E-01   4.000000E-01   4.000000E-01   4.000000E-01   4.000000E-01   4.000000E-01   4.000000E-01   4.000000E-01   4.000000E-01   4.000000E-01   4.000000E-01   4.000000E-01   4.000000E-01   4.000000E-01   4.000000E-01   4.000000E-01   4.000000E-01   4.000000E-01   4.000000E-01   4.000000E-01   4.000000E-01   4.000000E-01   4.000000E-01   4.000000E-01   4.000000E-01   4.000000E-01   4.000000E-01   4.000000E-01   4.000000E-01   4.000000E-01   4.000000E-01   4.000000E-01   4.000000E-01   4.000000E-01   4.000000E-01   4.000000E-01   4.000000E-01   4.000000E-01   4.000000E-01   4.000000E-01   4.000000E-01   4.000000E-01   4.000000E-01   4.000000E-01   4.000000E-01   4.000000E-01   4.000000E-01   4.000000E-01   4.000000E-01   4.000000E-01   4.000000E-01   4.000000E-01   4.000000E-01   4.000000E-01   4.000000E-01   4.000000E-01   4.000000E-01   4.000000E-01   4.000000E-01   4.000000E-01   4.000000E-01   4.000000E-01   4.000000E-01   4.000000E-01   4.000000E-01   4.000000E-01   4.000000E-01   4.000000E-01   4.000000E-01   4.000000E-01   4.000000E-01   4.000000E-01   4.000000E-01   4.000000E-01   4.000000E-01   4.000000E-01   4.000000E-01   4.000000E-01   4.000000E-01   4.000000E-01   4.000000E-01   4.000000E-01   4.000000E-01   4.000000E-01   4.000000E-01   4.000000E-01   4.000000E-01   4.000000E-01   4.000000E-01   4.000000E-01   4.000000E-01   4.000000E-01   4.000000E-01   4.000000E-01   4.000000E-01   4.000000E-01   4.000000E-01   4.000000E-01   4.000000E-01   4.000000E-01   4.000000E-01   4.000000E-01   4.000000E-01   4.000000E-01   4.000000E-01   4.000000E-01   4.000000E-01   4.000000E-01   4.000000E-01   4.000000E-01   4.000000E-01   4.000000E-01   4.000000E-01   4.000000E-01   4.000000E-01   4.000000E-01   4.000000E-01   4.000000E-01   4.000000E-01   4.000000E-01   4.000000E-01   4.000000E-01   4.000000E-01   4.000000E-01   4.000000E-01   4.000000E-01   4.000000E-01   4.000000E-01   4.000000E-01   4.000000E-01   4.000000E-01   4.000000E-01   4.000000E-01   4.000000E-01   4.000000E-01   4.000000E-01   4.000000E-01   4.000000E-01   4.000000E-01   4.000000E-01   4.000000E-01   4.000000E-01   4.000000E-01   4.000000E-01   4.000000E-01   4.000000E-01   4.000000E-01   4.000000E-01   4.000000E-01   4.000000E-01   4.000000E-01   4.000000E-01   4.000000E-01   4.000000E-01   4.000000E-01   4.000000E-01   4.000000E-01   4.000000E-01   4.000000E-01   4.000000E-01   4.000000E-01   4.000000E-01   4.000000E-01   4.000000E-01   4.000000E-01   4.000000E-01   4.000000E-01   4.000000E-01   4.000000E-01   4.000000E-01   4.000000E-01   4.000000E-01   4.000000E-01   4.000000E-01   4.000000E-01   4.000000E-01   4.000000E-01   4.000000E-01   4.000000E-01   4.000000E-01   4.000000E-01   4.000000E-01   4.000000E-01   4.000000E-01   4.000000E-01   4.000000E-01   4.000000E-01   4.000000E-01   4.000000E-01   4.000000E-01   4.000000E-01   4.000000E-01   4.000000E-01   4.000000E-01   4.000000E-01   4.000000E-01   4.000000E-01   4.000000E-01   4.000000E-01   4.000000E-01   4.000000E-01   4.000000E-01   4.000000E-01   4.000000E-01   4.000000E-01   4.000000E-01   4.000000E-01   4.000000E-01   4.000000E-01   4.000000E-01   4.000000E-01   4.000000E-01   4.000000E-01   4.000000E-01   4.000000E-01   4.000000E-01   4.000000E-01   4.000000E-01   4.000000E-01   4.000000E-01   4.000000E-01   4.000000E-01   4.000000E-01   4.000000E-01   4.000000E-01   4.000000E-01   4.000000E-01   4.000000E-01   4.000000E-01   4.000000E-01   4.000000E-01   4.000000E-01   4.000000E-01   4.000000E-01   4.000000E-01   4.000000E-01   4.000000E-01   4.000000E-01   4.000000E-01   4.000000E-01   4.000000E-01   4.000000E-01   4.000000E-01   4.000000E-01   4.000000E-01   4.000000E-01   4.000000E-01   4.000000E-01   4.000000E-01   4.000000E-01   4.000000E-01   4.000000E-01   4.000000E-01   4.000000E-01   4.000000E-01   4.000000E-01   4.000000E-01   4.000000E-01   4.000000E-01   4.000000E-01   4.000000E-01   4.000000E-01   4.000000E-01   4.000000E-01   4.000000E-01   4.000000E-01   4.000000E-01   4.000000E-01   4.000000E-01   4.000000E-01   4.000000E-01   4.000000E-01   4.000000E-01   4.000000E-01   4.000000E-01   4.000000E-01   4.000000E-01   4.000000E-01   4.000000E-01   4.000000E-01   4.000000E-01   4.000000E-01   4.000000E-01   4.000000E-01   4.000000E-01   4.000000E-01   4.000000E-01   4.000000E-01   4.000000E-01   4.000000E-01   4.000000E-01   4.000000E-01   4.000000E-01   4.000000E-01   4.000000E-01   4.000000E-01   4.000000E-01   4.000000E-01   4.000000E-01   4.000000E-01   4.000000E-01   4.000000E-01   4.000000E-01   4.000000E-01   4.000000E-01   4.000000E-01   4.000000E-01   4.000000E-01   4.000000E-01   4.000000E-01   4.000000E-01   4.000000E-01   4.000000E-01   4.000000E-01   4.000000E-01   4.000000E-01   4.000000E-01   4.000000E-01   4.000000E-01   4.000000E-01   4.000000E-01   4.000000E-01   4.000000E-01   4.000000E-01   4.000000E-01   4.000000E-01   4.000000E-01   4.000000E-01   4.000000E-01   4.000000E-01   4.000000E-01   4.000000E-01   4.000000E-01   4.000000E-01   4.000000E-01   4.000000E-01   4.000000E-01   4.000000E-01   4.000000E-01   4.000000E-01   4.000000E-01   4.000000E-01   4.000000E-01   4.000000E-01   4.000000E-01   4.000000E-01   4.000000E-01   4.000000E-01   4.000000E-01   4.000000E-01   4.000000E-01   4.000000E-01   4.000000E-01   4.000000E-01   4.000000E-01   4.000000E-01   4.000000E-01   4.000000E-01   4.000000E-01   4.000000E-01   4.000000E-01   4.000000E-01   4.000000E-01   4.000000E-01   4.000000E-01   4.000000E-01   4.000000E-01   4.000000E-01   4.000000E-01   4.000000E-01   4.000000E-01   4.000000E-01   4.000000E-01   4.000000E-01   4.000000E-01   4.000000E-01   4.000000E-01   4.000000E-01   4.000000E-01   4.000000E-01   4.000000E-01   4.000000E-01   4.000000E-01   4.000000E-01   4.000000E-01   4.000000E-01   4.000000E-01   4.000000E-01   4.000000E-01   4.000000E-01   4.000000E-01   4.000000E-01   4.000000E-01   4.000000E-01   4.000000E-01   4.000000E-01   4.000000E-01   4.000000E-01   4.000000E-01   4.000000E-01   4.000000E-01   4.000000E-01   4.000000E-01   4.000000E-01   4.000000E-01   4.000000E-01   4.000000E-01   4.000000E-01   4.000000E-01   4.000000E-01   4.000000E-01   4.000000E-01   4.000000E-01   4.000000E-01   4.000000E-01   4.000000E-01   4.000000E-01   4.000000E-01   4.000000E-01   4.000000E-01   4.000000E-01   4.000000E-01   4.000000E-01   4.000000E-01   4.000000E-01   4.000000E-01   4.000000E-01   4.000000E-01   4.000000E-01   4.000000E-01   4.000000E-01   4.000000E-01   4.000000E-01   4.000000E-01   4.000000E-01   4.000000E-01   4.000000E-01   4.000000E-01   4.000000E-01   4.000000E-01   4.000000E-01   4.000000E-01   4.000000E-01   4.000000E-01   4.000000E-01   4.000000E-01   4.000000E-01   4.000000E-01   4.000000E-01   4.000000E-01   4.000000E-01   4.000000E-01   4.000000E-01   4.000000E-01   4.000000E-01   4.000000E-01   4.000000E-01   4.000000E-01   4.000000E-01   4.000000E-01   4.000000E-01   4.000000E-01   4.000000E-01   4.000000E-01   4.000000E-01   4.000000E-01   4.000000E-01   4.000000E-01   4.000000E-01   4.000000E-01   4.000000E-01   4.000000E-01   4.000000E-01   4.000000E-01   4.000000E-01   4.000000E-01   4.000000E-01   4.000000E-01   4.000000E-01   4.000000E-01   4.000000E-01   4.000000E-01   4.000000E-01   4.000000E-01   4.000000E-01   4.000000E-01   4.000000E-01   4.000000E-01   4.000000E-01   4.000000E-01   4.000000E-01   4.000000E-01   4.000000E-01   4.000000E-01   4.000000E-01   4.000000E-01   4.000000E-01   4.000000E-01   4.000000E-01   4.000000E-01   4.000000E-01   4.000000E-01   4.000000E-01   4.000000E-01   4.000000E-01   4.000000E-01   4.000000E-01   4.000000E-01   4.000000E-01   4.000000E-01   4.000000E-01   4.000000E-01   4.000000E-01   4.000000E-01   4.000000E-01   4.000000E-01   4.000000E-01   4.000000E-01   4.000000E-01   4.000000E-01   4.000000E-01   4.000000E-01   4.000000E-01   4.000000E-01   4.000000E-01   4.000000E-01   4.000000E-01   4.000000E-01   4.000000E-01   4.000000E-01   4.000000E-01   4.000000E-01   4.000000E-01   4.000000E-01   4.000000E-01   4.000000E-01   4.000000E-01   4.000000E-01   4.000000E-01   4.000000E-01   4.000000E-01   4.000000E-01   4.000000E-01   4.000000E-01   4.000000E-01   4.000000E-01   4.000000E-01   4.000000E-01   4.000000E-01   4.000000E-01   4.000000E-01   4.000000E-01   4.000000E-01   4.000000E-01   4.000000E-01   4.000000E-01   4.000000E-01   4.000000E-01   4.000000E-01   4.000000E-01   4.000000E-01   4.000000E-01   4.000000E-01   4.000000E-01   4.000000E-01   4.000000E-01   4.000000E-01   4.000000E-01   4.000000E-01   4.000000E-01   4.000000E-01   4.000000E-01   4.000000E-01   4.000000E-01   4.000000E-01   4.000000E-01   4.000000E-01   4.000000E-01   4.000000E-01   4.000000E-01   4.000000E-01   4.000000E-01   4.000000E-01   4.000000E-01   4.000000E-01   4.000000E-01   4.000000E-01   4.000000E-01   4.000000E-01   4.000000E-01   4.000000E-01   4.000000E-01   4.000000E-01   4.000000E-01   4.000000E-01   4.000000E-01   4.000000E-01   4.000000E-01   4.000000E-01   4.000000E-01   4.000000E-01   4.000000E-01   4.000000E-01   4.000000E-01   4.000000E-01   4.000000E-01   4.000000E-01   4.000000E-01   4.000000E-01   4.000000E-01   4.000000E-01   4.000000E-01   4.000000E-01   4.000000E-01   4.000000E-01   4.000000E-01   4.000000E-01   4.000000E-01   4.000000E-01   4.000000E-01   4.000000E-01   4.000000E-01   4.000000E-01   4.000000E-01   4.000000E-01   4.000000E-01   4.000000E-01   4.000000E-01   