<?xml version="1.0"?>
<!-- Time =  2.8003176260279394E+00s -->
<VTKFile type="PolyData" version="0.1" byte_order="LittleEndian">
<PolyData>
<Piece NumberOfPoints="0000002400" NumberOfVerts="0" NumberOfLines="0" NumberOfStrips="0" NumberOfPolys="0">
<Points>
<DataArray type="Float32" Name="Position" NumberOfComponents="3" format="ascii">
  3.616718E+00   2.060353E-01   2.131792E-01   2.946244E+00   2.097630E-01   2.171901E+00   7.053856E+00   1.300264E+01   2.655182E+00   7.695611E+00   2.520407E+00   1.296640E+00   6.464711E+00   8.243534E-01   4.594952E+00   7.255682E+00   2.979010E+00   2.309065E+00   8.967050E+00   3.866405E-01   1.931640E+00   5.853358E+00   3.503722E+00   1.258151E+00   6.970409E-01   1.122429E+00   1.632639E+00   3.255489E+00   7.405731E-01   4.707520E+00   2.040590E+00   2.985474E+00   3.744130E+00   8.507248E+00   8.320153E-01   3.078389E+00   5.686185E+00   2.072121E-01   5.052515E-01   7.418698E+00   1.720891E+01   2.273558E+00   3.526644E+00   1.373482E+00   2.378241E+00   1.320721E+01   1.820322E-01   1.538051E+00   7.065576E+00   1.775073E+00   1.530667E+00   5.814787E+00   2.082984E-01   2.941749E+00   1.167623E+01   4.525827E+00   3.418463E+00   8.152989E+00   1.234888E+01   3.052142E+00   9.808242E+00   7.219981E+00   1.485276E+00   5.477398E+00   1.085836E+00   2.247695E+00   1.158457E+01   1.980045E+01   4.571992E+00   2.387523E+00   1.432916E+00   4.709133E+00   5.978948E+00   3.067090E+00   1.178399E+00   6.914388E+00   2.366917E-01   4.287176E+00   9.512964E+00   2.047925E-01   2.774312E+00   5.851130E+00   2.009213E-01   4.197756E+00   1.263385E+01   1.152016E+00   2.132049E+00   5.441739E+00   2.801385E+00   2.078263E+00   6.077192E+00   7.441051E+00   1.782694E+00   6.860902E+00   1.969620E+01   3.939907E-01   1.445443E+01   1.258378E+01   4.649203E+00   5.693079E+00   1.979842E-01   9.110638E-01   4.784586E+00   4.347715E-01   2.438738E+00   3.789723E+00   1.078010E+01   4.469970E+00   1.401560E+01   8.176399E+00   4.847009E+00   6.567659E+00   3.041646E+00   2.775481E-01   7.027064E+00   4.296287E+00   3.170606E+00   6.424045E+00   3.809562E+00   3.601098E-01   8.676850E+00   7.544116E+00   2.127319E+00   1.623738E+00   6.183515E-01   7.179832E-01   2.854184E+00   1.008680E+00   1.116634E+00   5.702856E+00   4.834376E-01   2.079778E-01   4.918983E+00   5.143955E-01   4.610360E+00   1.190641E+01   2.300106E-01   6.764299E-01   5.644158E+00   5.398815E-01   2.386070E+00   6.068236E+00   1.996159E-01   1.628828E+00   5.767759E+00   1.376787E+01   4.848099E+00   8.380251E+00   1.868005E+00   2.649245E+00   3.140181E+00   5.664370E+00   2.101419E+00   9.288430E+00   1.028376E+01   3.382352E-01   6.286711E+00   5.382943E-01   1.766038E+00   5.035049E+00   1.375616E+00   2.183494E-01   1.357617E+01   9.254691E+00   1.680168E+00   5.323153E+00   1.453194E+01   2.796116E+00   5.651774E+00   5.705092E-01   1.962656E+00   6.474950E+00   5.608891E-01   2.169878E+00   3.851751E+00   6.332449E-01   1.996378E-01   9.518580E+00   7.810551E-01   5.621755E-01   6.955335E+00   7.104713E-01   4.185030E+00   6.313165E+00   2.986161E+00   4.946572E+00   1.397968E+00   1.075637E+00   2.032892E-01   3.713553E+00   1.114616E+00   2.798153E-01   7.821440E+00   1.019388E+00   3.340670E+00   6.912736E+00   3.651631E+00   1.314551E+00   6.531150E+00   2.108503E-01   4.676070E+00   5.528543E+00   1.104198E+01   4.587331E+00   6.602352E+00   1.133944E+01   3.697891E+00   9.460090E-01   1.492883E+00   2.607158E+00   1.280333E+01   1.948861E-01   6.843761E-01   5.499541E+00   6.434881E+00   3.799918E+00   1.451421E+01   2.616699E-01   3.575646E+00   6.459403E+00   3.847420E+00   2.801338E+00   8.468625E-01   1.029865E+01   1.997073E-01   1.135207E+01   1.699481E+01   4.607622E+00   2.532601E+00   8.998057E-01   4.771207E+00   1.126180E+01   3.050402E+00   3.326657E+00   9.643914E+00   1.060443E+01   1.548131E+00   1.189796E+00   2.879371E+00   2.710252E+00   2.448185E-01   5.711804E+00   2.452474E+00   4.812763E+00   1.168600E+01   2.321842E+00   2.337720E-01   7.049205E-01   3.074354E+00   6.195462E+00   2.315974E+00   2.735659E+00   5.163410E+00   1.020553E+01   3.294898E+00   2.390827E-01   6.414047E-01   2.153915E-01   1.066878E+01   2.932086E-01   1.626272E+00   6.922208E+00   1.010302E+01   2.246346E+00   8.006523E-01   9.304343E+00   1.845323E+00   5.404066E+00   4.231448E+00   4.282952E-01   9.044802E+00   5.727500E+00   3.833214E+00   8.101603E+00   9.750667E-01   1.915472E+00   9.379608E+00   4.650170E+00   3.671385E+00   9.277400E+00   3.900897E+00   4.924744E+00   4.859981E+00   1.076423E+01   1.668379E+00   3.787865E+00   2.737246E+00   3.983390E+00   2.447497E+00   1.655960E+00   7.449726E-01   1.635252E+00   3.473430E-01   4.375582E+00   1.196469E+01   1.033723E+01   2.737101E+00   6.242673E+00   1.037043E+01   6.680226E-01   3.430001E-01   1.095221E+01   2.249288E+00   7.559025E-01   1.696377E+00   5.628722E-01   5.180624E+00   4.232252E-01   2.631258E+00   4.055624E+00   4.223298E-01   3.712221E+00   2.076186E+00   1.255480E+00   9.052109E-01   4.787280E+00   1.993689E-01   6.058506E-01   2.629220E+00   2.137248E-01   5.903798E-01   9.809855E+00   1.779700E+01   3.251727E+00   6.870263E+00   2.070972E+01   1.674502E+00   8.240133E+00   2.106807E+00   3.895653E+00   4.620640E+00   1.186148E+00   1.663423E+00   8.866797E-01   2.297851E-01   2.034865E+00   5.315032E+00   1.036619E+01   1.694165E+00   5.378323E+00   2.031343E-01   2.947845E+00   5.855248E-01   2.236540E-01   1.191294E+00   8.922798E+00   6.969706E-01   4.292109E-01   7.724444E+00   1.245713E+00   4.105638E+00   3.472525E-01   9.598272E-01   3.961119E+00   2.086358E+00   3.751421E-01   3.015200E+00   5.821288E+00   9.272954E-01   1.296725E+00   4.764398E+00   1.426457E+01   1.309670E+00   2.237540E+00   1.396655E+00   2.769289E+00   1.405132E+01   5.890019E+00   1.201624E+00   2.633510E+00   5.643270E-01   3.649267E+00   1.100300E+00   9.483256E-01   3.276655E+00   7.230954E-01   6.382396E-01   3.374094E+00   4.824760E+00   2.972631E+00   1.408672E+00   6.558531E+00   1.691277E+00   3.219650E+00   6.580832E+00   2.764812E+00   1.748058E+00   2.729647E+00   6.013627E+00   2.238453E+00   2.343329E+00   2.183331E-01   8.939200E-01   1.545414E+00   1.461169E+01   3.848479E+00   1.343200E+01   9.622148E+00   1.560939E+00   3.703691E+00   6.101946E-01   2.094987E+00   4.830042E-01   1.930161E+00   2.145423E+00   1.397749E+01   7.008811E+00   3.587372E+00   1.052810E+01   2.049109E-01   7.017769E-01   4.119176E+00   2.014850E-01   2.182592E+00   8.026692E+00   1.160746E+01   1.786733E+00   6.188612E+00   1.080029E+01   3.735212E+00   5.188515E+00   1.111384E+01   3.346049E+00   8.048453E+00   1.682360E+00   1.974597E+00   3.785966E+00   9.843184E-01   3.238843E+00   9.214676E+00   8.822464E+00   3.471464E+00   2.075704E+00   1.216954E+01   4.312035E+00   5.967579E+00   2.211526E-01   3.791708E+00   1.379004E+01   1.943101E+00   2.388750E+00   2.238425E+00   2.364067E-01   1.292755E+00   1.421710E+01   1.724873E+00   4.558930E+00   6.326756E+00   5.324170E+00   2.345978E+00   5.652486E+00   5.529429E+00   4.154582E+00   5.262837E+00   1.984498E-01   1.590430E+00   1.146915E+01   1.363091E+00   3.860770E+00   6.306032E+00   8.614245E+00   2.256241E+00   6.272740E+00   1.514580E+01   2.208899E+00   5.757367E+00   1.126730E+01   4.981291E+00   1.304005E+01   8.308080E+00   4.524471E+00   3.657052E+00   1.827996E+01   2.300092E+00   5.428346E-01   5.591813E-01   4.986640E-01   2.200970E+00   2.135945E-01   2.708258E-01   3.724674E+00   1.970236E-01   1.703704E+00   2.491707E-01   2.125676E-01   6.619411E-01   1.059061E+01   3.002065E+00   3.973455E+00   1.099587E+01   4.652317E-01   2.612982E-01   2.195159E+00   2.126491E-01   2.568356E+00   6.688147E+00   8.700314E-01   3.592392E+00   9.848369E+00   1.726446E+00   4.130192E+00   2.518200E+00   1.057808E+01   4.243229E+00   4.491377E+00   1.109435E+01   3.437011E+00   3.807512E+00   8.358485E-01   4.465549E+00   6.986610E+00   1.829497E+00   5.230022E-01   4.529700E+00   4.410688E+00   3.767244E+00   8.588557E+00   8.301410E+00   1.984353E+00   1.090066E+01   8.185171E+00   7.184774E-01   5.593937E+00   5.035273E-01   2.788596E+00   5.897724E+00   6.473397E+00   2.171674E+00   5.808475E+00   6.031424E+00   3.589129E+00   8.627807E+00   7.431239E+00   3.950481E+00   1.321800E+01   9.442212E-01   1.969577E+00   1.428742E+00   2.322788E-01   4.404811E-01   3.645564E+00   7.228594E-01   4.885235E+00   3.682868E+00   7.023766E+00   4.081980E-01   5.814764E+00   1.646503E+00   2.070624E-01   1.403300E+01   3.174630E+00   3.216901E+00   6.007994E+00   8.826267E-01   1.996085E+00   2.039127E-01   5.210643E-01   4.209154E+00   1.207800E+01   6.483660E-01   1.254312E+00   2.657725E+00   1.332328E+00   3.970953E+00   4.474201E+00   2.369781E-01   3.995485E+00   4.025851E+00   2.068430E-01   2.399866E-01   1.353858E+00   4.645719E+00   5.947081E-01   8.812246E+00   3.139195E-01   7.843158E-01   6.289499E+00   1.358214E+00   1.964035E+00   6.398620E+00   1.106905E+01   2.593511E+00   1.317388E+01   1.241839E+01   2.021374E-01   2.689745E+00   3.061837E+00   4.916570E+00   6.991508E+00   5.205887E+00   2.284778E+00   6.934680E+00   2.742004E+00   2.055337E+00   3.233552E+00   1.045977E+00   3.469985E+00   7.820183E+00   1.900793E+01   3.910977E+00   5.201596E+00   1.574033E+00   2.982788E+00   9.366445E+00   3.147990E-01   3.122294E+00   6.513758E-01   2.223691E-01   4.589845E+00   7.236758E+00   2.847458E+00   4.694426E-01   6.212286E+00   1.986319E-01   4.371162E+00   1.920843E+00   3.042726E+00   1.106287E+00   9.707067E+00   2.331157E+00   2.592755E+00   6.122663E+00   8.760573E-01   3.099554E+00   1.051362E+01   7.122488E-01   2.512878E-01   5.952343E+00   2.979737E+00   3.160111E+00   3.463135E+00   4.545309E+00   3.419198E+00   4.457101E+00   1.992916E-01   2.407081E+00   4.344376E+00   1.356127E+01   2.601873E+00   2.939412E+00   7.009410E+00   2.828579E+00   6.310003E-01   1.381060E+00  
[...]
<PointData Scalars="Diameter" Vectors="Velocity">
<DataArray type="Float32" Name="Diameter" format="ascii">
  4.000000E-01   4.000000E-01   4.000000E-01   4.000000E-01   4.000000E-01   4.000000E-01   4.000000E-01   4.000000E-01   4.000000E-01   4.000000E-01   4.000000E-01   4.000000E-01   4.000000E-01   4.000000E-01   4.000000E-01   4.000000E-01   4.000000E-01   4.000000E-01   4.000000E-01   4.000000E-01   4.000000E-01   4.000000E-01   4.000000E-01   4.000000E-01   4.000000E-01   4.000000E-01   4.000000E-01   4.000000E-01   4.000000E-01   4.000000E-01   4.000000E-01   4.000000E-01   4.000000E-01   4.000000E-01   4.000000E-01   4.000000E-01   4.000000E-01   4.000000E-01   4.000000E-01   4.000000E-01   4.000000E-01   4.000000E-01   4.000000E-01   4.000000E-01   4.000000E-01   4.000000E-01   4.000000E-01   4.000000E-01   4.000000E-01   4.000000E-01   4.000000E-01   4.000000E-01   4.000000E-01   4.000000E-01   4.000000E-01   4.000000E-01   4.000000E-01   4.000000E-01   4.000000E-01   4.000000E-01   4.000000E-01   4.000000E-01   4.000000E-01   4.000000E-01   4.000000E-01   4.000000E-01   4.000000E-01   4.000000E-01   4.000000E-01   4.000000E-01   4.000000E-01   4.000000E-01   4.000000E-01   4.000000E-01   4.000000E-01   4.000000E-01   4.000000E-01   4.000000E-01   4.000000E-01   4.000000E-01   4.000000E-01   4.000000E-01   4.000000E-01   4.000000E-01   4.000000E-01   4.000000E-01   4.000000E-01   4.000000E-01   4.000000E-01   4.000000E-01   4.000000E-01   4.000000E-01   4.000000E-01   4.000000E-01   4.000000E-01   4.000000E-01   4.000000E-01   4.000000E-01   4.000000E-01   4.000000E-01   4.000000E-01   4.000000E-01   4.000000E-01   4.000000E-01   4.000000E-01   4.000000E-01   4.000000E-01   4.000000E-01   4.000000E-01   4.000000E-01   4.000000E-01   4.000000E-01   4.000000E-01   4.000000E-01   4.000000E-01   4.000000E-01   4.000000E-01   4.000000E-01   4.000000E-01   4.000000E-01   4.000000E-01   4.000000E-01   4.000000E-01   4.000000E-01   4.000000E-01   4.000000E-01   4.000000E-01   4.000000E-01   4.000000E-01   4.000000E-01   4.000000E-01   4.000000E-01   4.000000E-01   4.000000E-01   4.000000E-01   4.000000E-01   4.000000E-01   4.000000E-01   4.000000E-01   4.000000E-01   4.000000E-01   4.000000E-01   4.000000E-01   4.000000E-01   4.000000E-01   4.000000E-01   4.000000E-01   4.000000E-01   4.000000E-01   4.000000E-01   4.000000E-01   4.000000E-01   4.000000E-01   4.000000E-01   4.000000E-01   4.000000E-01   4.000000E-01   4.000000E-01   4.000000E-01   4.000000E-01   4.000000E-01   4.000000E-01   4.000000E-01   4.000000E-01   4.000000E-01   4.000000E-01   4.000000E-01   4.000000E-01   4.000000E-01   4.000000E-01   4.000000E-01   4.000000E-01   4.000000E-01   4.000000E-01   4.000000E-01   4.000000E-01   4.000000E-01   4.000000E-01   4.000000E-01   4.000000E-01   4.000000E-01   4.000000E-01   4.000000E-01   4.000000E-01   4.000000E-01   4.000000E-01   4.000000E-01   4.000000E-01   4.000000E-01   4.000000E-01   4.000000E-01   4.000000E-01   4.000000E-01   4.000000E-01   4.000000E-01   4.000000E-01   4.000000E-01   4.000000E-01   4.000000E-01   4.000000E-01   4.000000E-01   4.000000E-01   4.000000E-01   4.000000E-01   4.000000E-01   4.000000E-01   4.000000E-01   4.000000E-01   4.000000E-01   4.000000E-01   4.000000E-01   4.000000E-01   4.000000E-01   4.000000E-01   4.000000E-01   4.000000E-01   4.000000E-01   4.000000E-01   4.000000E-01   4.000000E-01   4.000000E-01   4.000000E-01   4.000000E-01   4.000000E-01   4.000000E-01   4.000000E-01   4.000000E-01   4.000000E-01   4.000000E-01   4.000000E-01   4.000000E-01   4.000000E-01   4.000000E-01   4.000000E-01   4.000000E-01   4.000000E-01   4.000000E-01   4.000000E-01   4.000000E-01   4.000000E-01   4.000000E-01   4.000000E-01   4.000000E-01   4.000000E-01   4.000000E-01   4.000000E-01   4.000000E-01   4.000000E-01   4.000000E-01   4.000000E-01   4.000000E-01   4.000000E-01   4.000000E-01   4.000000E-01   4.000000E-01   4.000000E-01   4.000000E-01   4.000000E-01   4.000000E-01   4.000000E-01   4.000000E-01   4.000000E-01   4.000000E-01   4.000000E-01   4.000000E-01   4.000000E-01   4.000000E-01   4.000000E-01   4.000000E-01   4.000000E-01   4.000000E-01   4.000000E-01   4.000000E-01   4.000000E-01   4.000000E-01   4.000000E-01   4.000000E-01   4.000000E-01   4.000000E-01   4.000000E-01   4.000000E-01   4.000000E-01   4.000000E-01   4.000000E-01   4.000000E-01   4.000000E-01   4.000000E-01   4.000000E-01   4.000000E-01   4.000000E-01   4.000000E-01   4.000000E-01   4.000000E-01   4.000000E-01   4.000000E-01   4.000000E-01   4.000000E-01   4.000000E-01   4.000000E-01   4.000000E-01   4.000000E-01   4.000000E-01   4.000000E-01   4.000000E-01   4.000000E-01   4.000000E-01   4.000000E-01   4.000000E-01   4.000000E-01   4.000000E-01   4.000000E-01   4.000000E-01   4.000000E-01   4.000000E-01   4.000000E-01   4.000000E-01   4.000000E-01   4.000000E-01   4.000000E-01   4.000000E-01   4.000000E-01   4.000000E-01   4.000000E-01   4.000000E-01   4.000000E-01   4.000000E-01   4.000000E-01   4.000000E-01   4.000000E-01   4.000000E-01   4.000000E-01   4.000000E-01   4.000000E-01   4.000000E-01   4.000000E-01   4.000000E-01   4.000000E-01   4.000000E-01   4.000000E-01   4.000000E-01   4.000000E-01   4.000000E-01   4.000000E-01   4.000000E-01   4.000000E-01   4.000000E-01   4.000000E-01   4.000000E-01   4.000000E-01   4.000000E-01   4.000000E-01   4.000000E-01   4.000000E-01   4.000000E-01   4.000000E-01   4.000000E-01   4.000000E-01   4.000000E-01   4.000000E-01   4.000000E-01   4.000000E-01   4.000000E-01   4.000000E-01   4.000000E-01   4.000000E-01   4.000000E-01   4.000000E-01   4.000000E-01   4.000000E-01   4.000000E-01   4.000000E-01   4.000000E-01   4.000000E-01   4.000000E-01   4.000000E-01   4.000000E-01   4.000000E-01   4.000000E-01   4.000000E-01   4.000000E-01   4.000000E-01   4.000000E-01   4.000000E-01   4.000000E-01   4.000000E-01   4.000000E-01   4.000000E-01   4.000000E-01   4.000000E-01   4.000000E-01   4.000000E-01   4.000000E-01   4.000000E-01   4.000000E-01   4.000000E-01   4.000000E-01   4.000000E-01   4.000000E-01   4.000000E-01   4.000000E-01   4.000000E-01   4.000000E-01   4.000000E-01   4.000000E-01   4.000000E-01   4.000000E-01   4.000000E-01   4.000000E-01   4.000000E-01   4.000000E-01   4.000000E-01   4.000000E-01   4.000000E-01   4.000000E-01   4.000000E-01   4.000000E-01   4.000000E-01   4.000000E-01   4.000000E-01   4.000000E-01   4.000000E-01   4.000000E-01   4.000000E-01   4.000000E-01   4.000000E-01   4.000000E-01   4.000000E-01   4.000000E-01   4.000000E-01   4.000000E-01   4.000000E-01   4.000000E-01   4.000000E-01   4.000000E-01   4.000000E-01   4.000000E-01   4.000000E-01   4.000000E-01   4.000000E-01   4.000000E-01   4.000000E-01   4.000000E-01   4.000000E-01   4.000000E-01   4.000000E-01   4.000000E-01   4.000000E-01   4.000000E-01   4.000000E-01   4.000000E-01   4.000000E-01   4.000000E-01   4.000000E-01   4.000000E-01   4.000000E-01   4.000000E-01   4.000000E-01   4.000000E-01   4.000000E-01   4.000000E-01   4.000000E-01   4.000000E-01   4.000000E-01   4.000000E-01   4.000000E-01   4.000000E-01   4.000000E-01   4.000000E-01   4.000000E-01   4.000000E-01   4.000000E-01   4.000000E-01   4.000000E-01   4.000000E-01   4.000000E-01   4.000000E-01   4.000000E-01   4.000000E-01   4.000000E-01   4.000000E-01   4.000000E-01   4.000000E-01   4.000000E-01   4.000000E-01   4.000000E-01   4.000000E-01   4.000000E-01   4.000000E-01   4.000000E-01   4.000000E-01   4.000000E-01   4.000000E-01   4.000000E-01   4.000000E-01   4.000000E-01   4.000000E-01   4.000000E-01   4.000000E-01   4.000000E-01   4.000000E-01   4.000000E-01   4.000000E-01   4.000000E-01   4.000000E-01   4.000000E-01   4.000000E-01   4.000000E-01   4.000000E-01   4.000000E-01   4.000000E-01   4.000000E-01   4.000000E-01   4.000000E-01   4.000000E-01   4.000000E-01   4.000000E-01   4.000000E-01   4.000000E-01   4.000000E-01   4.000000E-01   4.000000E-01   4.000000E-01   4.000000E-01   4.000000E-01   4.000000E-01   4.000000E-01   4.000000E-01   4.000000E-01   4.000000E-01   4.000000E-01   4.000000E-01   4.000000E-01   4.000000E-01   4.000000E-01   4.000000E-01   4.000000E-01   4.000000E-01   4.000000E-01   4.000000E-01   4.000000E-01   4.000000E-01   4.000000E-01   4.000000E-01   4.000000E-01   4.000000E-01   4.000000E-01   4.000000E-01   4.000000E-01   4.000000E-01   4.000000E-01   4.000000E-01   4.000000E-01   4.000000E-01   4.000000E-01   4.000000E-01   4.000000E-01   4.000000E-01   4.000000E-01   4.000000E-01   4.000000E-01   4.000000E-01   4.000000E-01   4.000000E-01   4.000000E-01   4.000000E-01   4.000000E-01   4.000000E-01   4.000000E-01   4.000000E-01   4.000000E-01   4.000000E-01   4.000000E-01   4.000000E-01   4.000000E-01   4.000000E-01   4.000000E-01   4.000000E-01   4.000000E-01   4.000000E-01   4.000000E-01   4.000000E-01   4.000000E-01   4.000000E-01   4.000000E-01   4.000000E-01   4.000000E-01   4.000000E-01   4.000000E-01   4.000000E-01   4.000000E-01   4.000000E-01   4.000000E-01   4.000000E-01   4.000000E-01   4.000000E-01   4.000000E-01   4.000000E-01   4.000000E-01   4.000000E-01   4.000000E-01   4.000000E-01   4.000000E-01   4.000000E-01   4.000000E-01   4.000000E-01   4.000000E-01   4.000000E-01   4.000000E-01   4.000000E-01   4.000000E-01   4.000000E-01   4.000000E-01   4.000000E-01   4.000000E-01   4.000000E-01   4.000000E-01   4.000000E-01   4.000000E-01   4.000000E-01   4.000000E-01   4.000000E-01   4.000000E-01   4.000000E-01   4.000000E-01   4.000000E-01   4.000000E-01   4.000000E-01   4.000000E-01   4.000000E-01   4.000000E-01   4.000000E-01   4.000000E-01   4.000000E-01   4.000000E-01   4.000000E-01   4.000000E-01   4.000000E-01   4.000000E-01   4.000000E-01   4.000000E-01   4.000000E-01   4.000000E-01   4.000000E-01   4.000000E-01   4.000000E-01   4.000000E-01   4.000000E-01   4.000000E-01   4.000000E-01   4.000000E-01   4.000000E-01   4.000000E-01   4.000000E-01   4.000000E-01   4.000000E-01   4.000000E-01   4.000000E-01   4.000000E-01   4.000000E-01   4.000000E-01   4.000000E-01   4.000000E-01   4.000000E-01   4.000000E-01   4.000000E-01   4.000000E-01   4.000000E-01   4.000000E-01   4.000000E-01   4.000000E-01   4.000000E-01   4.000000E-01   4.000000E-01   4.000000E-01   4.000000E-01   4.000000E-01   4.000000E-01   4.000000E-01   4.000000E-01   4.000000E-01   4.000000E-01   4.000000E-01   4.000000E-01   4.000000E-01   4.000000E-01   4.000000E-01   4.000000E-01   4.000000E-01   4.000000E-01   4.000000E-01   4.000000E-01   4.000000E-01   4.000000E-01   4.000000E-01   4.000000E-01   4.000000E-01   4.000000E-01   4.000000E-01   4.000000E-01   4.000000E-01   4.000000E-01   4.000000E-01   4.000000E-01   4.000000E-01   4.000000E-01   4.000000E-01   4.000000E-01   4.000000E-01   4.000000E-01   4.000000E-01   4.000000E-01   4.000000E-01   4.000000E-01   4.000000E-01   4.000000E-01   4.000000E-01   4.000000E-01   4.000000E-01   4.000000E-01   4.000000E-01   4.000000E-01   4.000000E-01   4.000000E-01   4.000000E-01   4.000000E-01   4.000000E-01   4.000000E-01   4.000000E-01   4.000000E-01   4.000000E-01   4.000000E-01   4.000000E-01   4.000000E-01   4.000000E-01   4.000000E-01   4.000000E-01   4.000000E-01   4.000000E-01   4.000000E-01   4.000000E-01   4.000000E-01   4.000000E-01   4.000000E-01   4.000000E-01   4.000000E-01   4.000000E-01   4.000000E-01   4.000000E-01   4.000000E-01   4.000000E-01   4.000000E-01   4.000000E-01   4.000000E-01   4.000000E-01   4.000000E-01   4.000000E-01   4.000000E-01   4.000000E-01   4.000000E-01   4.000000E-01   4.000000E-01   4.000000E-01   4.000000E-01   4.000000E-01   4.000000E-01   4.000000E-01   4.000000E-01   4.000000E-01   4.000000E-01   4.000000E-01   4.000000E-01   4.000000E-01   4.000000E-01   4.000000E-01   4.000000E-01   4.000000E-01   4.000000E-01   4.000000E-01   4.000000E-01   4.000000E-01   4.000000E-01   4.000000E-01   4.000000E-01   4.000000E-01   4.000000E-01   4.000000E-01   4.000000E-01   4.000000E-01   4.000000E-01   4.000000E-01   4.000000E-01   4.000000E-01   4.000000E-01   4.000000E-01   4.000000E-01   4.000000E-01   4.000000E-01   4.000000E-01   4.000000E-01   4.000000E-01   4.000000E-01   4.000000E-01   4.000000E-01   4.000000E-01   4.000000E-01   4.000000E-01   4.000000E-01   4.000000E-01   4.000000E-01   4.000000E-01   4.000000E-01   4.000000E-01   4.000000E-01   4.000000E-01   4.000000E-01   4.000000E-01   4.000000E-01   4.000000E-01   4.000000E-01   4.000000E-01   4.000000E-01   4.000000E-01   4.000000E-01   4.000000E-01   4.000000E-01   4.000000E-01   4.000000E-01   4.000000E-01   4.000000E-01   4.000000E-01   4.000000E-01   4.000000E-01   4.000000E-01   4.000000E-01   4.000000E-01   4.000000E-01   4.000000E-01   4.000000E-01   4.000000E-01   4.000000E-01   4.000000E-01   4.000000E-01   4.000000E-01   4.000000E-01   4.000000E-01   4.000000E-01   4.000000E-01   4.000000E-01   4.000000E-01   4.000000E-01   4.000000E-01   4.000000E-01   4.000000E-01   4.000000E-01   4.000000E-01   4.000000E-01   4.000000E-01   4.000000E-01   4.000000E-01   4.000000E-01   4.000000E-01   4.000000E-01   4.000000E-01   4.000000E-01   4.000000E-01   4.000000E-01   4.000000E-01   4.000000E-01   4.000000E-01   4.000000E-01   4.000000E-01   4.000000E-01   4.000000E-01   4.000000E-01   4.000000E-01   4.000000E-01   4.000000E-01   4.000000E-01   4.000000E-01   4.000000E-01   4.000000E-01   4.000000E-01   4.000000E-01   4.000000E-01   4.000000E-01   4.000000E-01   4.000000E-01   4.000000E-01   4.000000E-01   4.000000E-01   4.000000E-01   4.000000E-01   4.000000E-01   4.000000E-01   4.000000E-01   4.000000E-01   4.000000E-01   4.000000E-01   4.000000E-01   4.000000E-01   4.000000E-01   4.000000E-01   4.000000E-01   4.000000E-01   4.000000E-01   4.000000E-01   4.000000E-01   4.000000E-01   4.000000E-01   4.000000E-01   4.000000E-01   4.000000E-01   4.000000E-01   4.000000E-01   4.000000E-01   4.000000E-01   4.000000E-01   4.000000E-01   4.000000E-01   4.000000E-01   4.000000E-01   4.000000E-01   4.000000E-01   4.000000E-01   4.000000E-01   4.000000E-01   4.000000E-01   4.000000E-01   4.000000E-01   4.000000E-01   4.000000E-01   4.000000E-01   4.000000E-01   4.000000E-01   4.000000E-01   4.000000E-01   4.000000E-01   4.000000E-01   4.000000E-01   4.000000E-01   4.000000E-01   4.000000E-01   4.000000E-01   4.000000E-01   4.000000E-01   4.000000E-01   4.000000E-01   4.000000E-01   4.000000E-01   4.000000E-01   4.000000E-01   4.000000E-01   4.000000E-01   4.000000E-01   4.000000E-01   4.000000E-01   4.000000E-01   4.000000E-01   4.000000E-01   4.000000E-01   4.000000E-01   4.000000E-01   4.000000E-01   4.000000E-01   4.000000E-01   4.000000E-01   4.000000E-01   4.000000E-01   4.000000E-01   4.000000E-01   4.000000E-01   4.000000E-01   4.000000E-01   4.000000E-01   4.000000E-01   4.000000E-01   4.000000E-01   4.000000E-01   4.000000E-01   4.000000E-01   4.000000E-01   4.000000E-01   4.000000E-01   4.000000E-01   4.000000E-01   4.000000E-01   4.000000E-01   4.000000E-01   4.000000E-01   4.000000E-01   4.000000E-01   4.000000E-01   4.000000E-01   4.000000E-01   4.000000E-01   4.000000E-01   4.000000E-01   4.000000E-01   4.000000E-01   4.000000E-01   4.000000E-01   4.000000E-01   4.000000E-01   4.000000E-01   4.000000E-01   4.000000E-01   4.000000E-01   4.000000E-01   4.000000E-01   4.000000E-01   4.000000E-01   4.000000E-01   4.000000E-01   4.000000E-01   4.000000E-01   4.000000E-01   4.000000E-01   4.000000E-01   4.000000E-01   4.000000E-01   4.000000E-01   4.000000E-01   4.000000E-01   4.000000E-01   4.000000E-01   4.000000E-01   4.000000E-01   4.000000E-01   4.000000E-01   4.000000E-01   4.000000E-01   4.000000E-01   4.000000E-01   4.000000E-01   4.000000E-01   4.000000E-01   4.000000E-01   4.000000E-01   4.000000E-01   4.000000E-01   4.000000E-01   4.000000E-01   4.000000E-01   4.000000E-01   4.000000E-01   4.000000E-01   4.000000E-01   4.000000E-01   4.000000E-01   4.000000E-01   4.000000E-01   4.000000E-01   4.000000E-01   4.000000E-01   4.000000E-01   4.000000E-01   4.000000E-01   4.000000E-01   4.000000E-01   4.000000E-01   4.000000E-01   4.000000E-01   4.000000E-01   4.000000E-01   4.000000E-01   4.000000E-01   4.000000E-01   4.000000E-01   4.000000E-01   4.000000E-01   4.000000E-01   4.000000E-01   4.000000E-01   4.000000E-01   4.000000E-01   4.000000E-01   4.000000E-01   4.000000E-01   4.000000E-01   4.000000E-01   4.000000E-01   4.000000E-01   4.000000E-01   4.000000E-01   4.000000E-01   4.000000E-01   4.000000E-01   4.000000E-01   4.000000E-01   4.000000E-01   4.000000E-01   4.000000E-01   4.000000E-01   4.000000E-01   4.000000E-01   4.000000E-01   4.000000E-01   4.000000E-01   4.000000E-01   4.000000E-01   4.000000E-01   4.000000E-01   4.000000E-01   4.000000E-01   4.000000E-01   4.000000E-01   4.000000E-01   4.000000E-01   4.000000E-01   4.000000E-01   4.000000E-01   4.000000E-01   4.000000E-01   4.000000E-01   4.000000E-01   4.000000E-01   4.000000E-01   4.000000E-01   4.000000E-01   4.000000E-01   4.000000E-01   4.000000E-01   4.000000E-01   4.000000E-01   4.000000E-01   4.000000E-01   4.000000E-01   4.000000E-01   4.000000E-01   4.000000E-01   4.000000E-01   4.000000E-01   4.000000E-01   4.000000E-01   4.000000E-01   4.000000E-01   4.000000E-01   4.000000E-01   4.000000E-01   4.000000E-01   4.000000E-01   4.000000E-01   4.000000E-01   4.000000E-01   4.000000E-01   4.000000E-01   4.000000E-01   4.000000E-01   4.000000E-01   4.000000E-01   4.000000E-01   4.000000E-01   4.000000E-01   4.000000E-01   4.000000E-01   4.000000E-01   4.000000E-01   4.000000E-01   4.000000E-01   4.000000E-01   4.000000E-01   4.000000E-01   4.000000E-01   4.000000E-01   4.000000E-01   4.000000E-01   4.000000E-01   4.000000E-01   4.000000E-01   4.000000E-01   4.000000E-01   4.000000E-01   4.000000E-01   4.000000E-01   4.000000E-01   4.000000E-01   4.000000E-01   4.000000E-01   4.000000E-01   4.000000E-01   4.000000E-01   4.000000E-01   4.000000E-01   4.000000E-01   4.000000E-01   4.000000E-01   4.000000E-01   4.000000E-01   4.000000E-01   4.000000E-01   4.000000E-01   4.000000E-01   4.000000E-01   4.000000E-01   4.000000E-01   4.000000E-01   4.000000E-01   4.000000E-01   4.000000E-01   4.000000E-01   4.000000E-01   4.000000E-01   4.000000E-01   4.000000E-01   4.000000E-01   4.000000E-01   4.000000E-01   4.000000E-01   4.000000E-01   4.000000E-01   4.000000E-01   4.000000E-01   4.000000E-01   4.000000E-01   4.000000E-01   4.000000E-01   4.000000E-01   4.000000E-01   4.000000E-01   4.000000E-01   4.000000E-01   4.000000E-01   4.000000E-01   4.000000E-01   4.000000E-01   4.000000E-01   4.000000E-01   4.000000E-01   4.000000E-01   4.000000E-01   4.000000E-01   4.000000E-01   4.000000E-01   4.000000E-01   4.000000E-01   4.000000E-01   4.000000E-01   4.000000E-01   4.000000E-01   4.000000E-01   4.000000E-01   4.000000E-01   4.000000E-01   4.000000E-01   4.000000E-01   4.000000E-01   4.000000E-01   4.000000E-01   4.000000E-01   4.000000E-01   4.000000E-01   4.000000E-01   4.000000E-01   4.000000E-01   4.000000E-01   4.000000E-01   4.000000E-01   4.000000E-01   4.000000E-01   4.000000E-01   4.000000E-01   4.000000E-01   4.000000E-01   4.000000E-01   4.000000E-01   4.000000E-01   4.000000E-01   4.000000E-01   4.000000E-01   4.000000E-01   4.000000E-01   4.000000E-01   4.000000E-01   4.000000E-01   4.000000E-01   4.000000E-01   4.000000E-01   4.000000E-01   4.000000E-01   4.000000E-01   4.000000E-01   4.000000E-01   4.000000E-01   4.000000E-01   4.000000E-01   4.000000E-01   4.000000E-01   4.000000E-01   4.000000E-01   4.000000E-01   4.000000E-01   4.000000E-01   4.000000E-01   4.000000E-01   4.000000E-01   4.000000E-01   4.000000E-01   4.000000E-01   4.000000E-01   4.000000E-01   4.000000E-01   4.000000E-01   4.000000E-01   4.000000E-01   4.000000E-01   4.000000E-01   4.000000E-01   4.000000E-01   4.000000E-01   4.000000E-01   4.000000E-01   4.000000E-01   4.000000E-01   4.000000E-01   4.000000E-01   4.000000E-01   4.000000E-01   4.000000E-01   4.000000E-01   4.000000E-01   4.000000E-01   4.000000E-01   4.000000E-01   4.000000E-01   4.000000E-01   4.000000E-01   