<?xml version="1.0"?>
<!-- Time =  1.9999176260279949E+00s -->
<VTKFile type="PolyData" version="0.1" byte_order="LittleEndian">
<PolyData>
<Piece NumberOfPoints="0000002400" NumberOfVerts="0" NumberOfLines="0" NumberOfStrips="0" NumberOfPolys="0">
<Points>
<DataArray type="Float32" Name="Position" NumberOfComponents="3" format="ascii">
  9.318341E-01   2.103141E-01   2.908917E-01   3.759672E+00   9.056683E-01   2.521084E-01   6.674311E+00   1.204601E+01   2.216682E-01   3.670402E+00   3.202195E+00   1.497176E+00   2.100584E+00   6.393132E-01   3.253705E+00   6.276886E+00   1.065306E+01   3.863518E+00   1.080378E+01   1.204820E+01   1.707223E+00   1.072822E+01   9.810055E+00   1.314791E+00   3.445001E+00   2.485983E-01   3.162976E+00   1.421951E+01   1.469337E+00   2.863319E+00   1.009238E+01   8.129322E-01   1.543921E+00   2.775367E+00   2.705151E+00   1.480145E+00   6.985325E+00   6.241520E+00   1.118617E+00   1.398552E+00   4.938453E+00   4.503924E+00   2.718121E+00   3.763283E+00   4.596709E+00   8.199901E+00   3.542356E-01   1.606312E+00   3.332131E+00   2.039186E-01   2.129219E-01   7.475911E+00   1.095154E+01   1.562001E+00   1.004105E+01   1.226996E+01   2.474336E+00   8.606853E+00   6.766816E-01   2.517117E+00   1.337660E+01   4.292007E+00   3.010404E+00   6.808173E+00   5.191984E+00   4.170419E+00   6.543811E+00   8.920613E+00   2.092753E+00   5.498579E+00   2.009941E-01   4.060148E+00   6.247578E+00   5.044194E-01   2.393786E+00   1.360627E+01   2.752466E+00   2.830607E+00   7.139093E+00   1.756279E+00   3.174821E+00   9.058418E+00   2.051046E+00   5.735552E-01   1.424736E+00   2.065537E-01   1.307565E+00   1.565378E+00   5.330918E-01   1.836113E+00   1.087031E+01   1.109023E+01   3.771534E+00   6.947711E+00   9.832870E-01   2.309181E-01   5.855237E+00   5.076052E+00   4.461991E+00   7.167068E+00   1.975901E+01   1.781419E+00   1.019078E+01   5.056016E+00   4.093773E-01   3.689543E+00   5.323380E+00   3.580048E+00   3.018042E+00   1.030971E+00   4.481087E-01   3.514215E+00   2.051320E-01   3.928483E+00   1.186395E+01   1.733097E+01   1.530088E+00   5.659943E+00   9.252748E-01   2.687213E-01   6.464344E+00   3.756047E+00   1.743748E+00   4.036232E+00   8.537481E-01   3.618471E+00   5.437892E+00   2.232027E+00   2.059423E+00   7.602708E+00   6.344345E-01   4.358243E+00   7.736709E+00   9.392741E+00   9.777948E-01   2.836277E+00   2.069573E-01   1.402683E+00   5.719639E+00   7.890847E+00   3.105098E+00   7.026201E+00   1.070829E+01   3.956403E+00   8.529366E+00   2.617806E-01   3.064411E+00   3.551217E+00   1.069785E+01   3.080794E-01   7.938694E+00   2.697592E-01   4.497563E+00   1.436930E+01   3.945234E-01   1.095815E+00   9.009729E+00   1.199804E+01   1.814074E+00   1.213179E+01   1.064358E+01   2.238354E+00   4.759356E+00   2.008257E-01   1.004380E+00   4.419529E+00   9.345902E-01   1.361999E+00   6.032485E+00   2.003938E-01   3.642950E+00   8.545603E+00   2.327816E-01   3.945315E+00   1.108890E+01   5.236384E+00   3.398325E+00   5.493355E+00   1.995439E-01   2.836858E-01   6.375433E+00   2.024484E-01   2.002744E-01   9.203730E+00   4.812479E+00   2.340890E+00   1.195662E+01   5.199190E-01   2.505241E+00   4.482287E+00   3.600585E+00   3.224223E+00   1.194665E+01   6.793097E-01   2.874408E+00   6.593408E+00   2.206494E-01   6.050615E-01   5.670702E+00   7.209761E+00   3.009828E+00   3.947046E+00   2.019730E-01   3.702251E+00   7.050886E-01   7.478237E+00   7.598141E-01   3.435420E+00   9.424796E-01   4.296185E+00   8.810508E+00   1.112892E+01   3.189653E+00   1.175441E+01   2.045440E-01   2.158259E+00   5.638232E+00   2.969570E-01   3.677051E+00   6.378899E+00   4.054695E-01   3.646465E+00   4.370825E+00   4.984386E-01   2.458771E+00   8.128872E+00   1.080674E+01   1.356777E+00   8.309903E+00   4.366291E-01   3.635309E+00   2.519231E+00   1.110958E+00   2.955277E+00   1.246353E+01   5.090241E-01   4.395833E+00   6.099097E+00   1.348635E+00   3.413952E+00   5.170814E+00   9.598497E-01   2.680392E+00   1.462622E+01   4.751023E-01   3.619846E+00   1.030852E+01   3.002640E-01   2.638873E+00   7.413168E+00   7.672277E+00   2.708880E+00   2.588173E+00   2.678648E-01   1.759402E+00   4.624754E+00   2.183889E-01   2.656214E+00   8.796592E+00   1.974805E+01   4.384227E+00   7.574018E+00   1.089080E+00   1.297923E+00   1.091171E+01   8.137462E+00   1.952954E+00   7.281460E+00   1.634528E+01   4.407963E-01   6.748278E+00   2.764617E+00   2.102593E+00   3.844705E+00   7.925103E-01   1.819375E+00   3.684716E+00   5.767667E-01   2.213452E+00   1.498385E+00   1.021124E+01   3.683804E+00   5.211296E+00   5.552493E-01   2.946936E+00   1.903168E+00   8.263205E-01   1.536039E+00   9.086038E+00   1.657435E+01   2.336931E+00   5.987501E+00   5.626507E-01   7.337141E-01   1.330406E+01   1.348634E+00   2.084005E+00   9.223017E+00   8.211605E-01   1.684701E+00   6.284053E+00   5.656453E-01   4.785240E+00   8.660789E+00   9.037213E+00   3.243721E+00   6.594172E+00   8.672387E-01   2.141208E+00   2.177507E+00   7.950915E-01   4.075085E+00   5.368108E-01   3.369095E-01   4.565175E+00   5.475776E+00   5.405424E-01   6.290146E-01   9.404196E-01   2.283247E-01   2.054114E+00   7.324471E+00   3.608646E+00   2.951371E+00   1.211807E+01   2.402098E-01   2.223366E-01   2.206787E-01   4.736806E-01   3.493846E+00   5.579688E+00   7.946399E+00   4.344167E+00   3.142481E+00   1.995333E-01   1.667473E+00   2.463795E+00   8.901244E+00   4.403491E-01   7.402122E+00   1.674596E+01   3.546273E+00   3.198186E+00   1.496547E+00   3.100511E+00   4.201430E+00   5.760339E-01   1.835804E+00   3.461365E+00   9.037494E-01   1.308362E+00   1.172113E+01   8.017742E+00   2.022034E+00   1.092535E+01   1.578575E+00   4.264898E+00   1.439046E+01   8.204275E-01   3.084286E+00   7.525535E+00   1.089758E+00   3.337075E-01   8.040149E+00   5.083204E+00   9.392123E-01   5.868923E+00   7.853576E-01   2.705212E+00   1.067717E+01   2.325440E+01   3.566121E+00   2.601035E+00   1.006018E+00   3.430216E+00   3.970477E+00   2.713991E-01   4.885415E+00   7.639505E+00   2.224266E+01   1.896521E+00   3.157272E+00   6.254281E-01   1.405602E+00   7.003568E+00   2.641662E+00   2.404867E+00   7.193816E+00   5.108920E+00   1.447802E+00   7.438951E+00   1.024888E+01   6.212980E-01   5.630667E+00   1.028454E+01   8.189030E-01   9.125644E+00   6.947653E+00   1.812996E+00   1.244593E+01   6.845785E-01   2.469964E+00   5.549705E+00   1.372573E+01   1.304119E+00   1.116335E+01   9.154088E+00   4.488545E+00   6.556904E+00   1.195216E+00   3.604293E+00   2.356867E+00   9.206979E-01   5.826429E-01   7.051282E+00   1.891883E+00   6.109970E-01   7.955142E+00   1.001687E+00   2.459241E-01   3.550874E+00   1.985214E-01   5.493141E-01   1.468203E+01   8.873925E-01   3.592873E+00   1.374259E+01   7.371059E-01   2.660797E+00   2.198951E+00   2.558396E+00   3.583209E+00   7.376553E+00   6.279054E+00   1.443556E+00   4.290321E-01   1.350818E+00   3.646508E+00   5.517970E+00   2.389084E-01   2.330079E+00   1.232279E+01   2.669966E-01   2.131430E+00   1.876929E+00   2.073975E-01   2.015222E-01   5.753366E+00   6.885925E+00   2.030076E-01   4.512745E-01   2.178755E+00   1.869375E+00   3.468859E+00   1.137136E+01   1.834547E+00   6.546520E+00   1.128745E+01   1.636448E+00   8.209806E+00   1.256407E+01   2.184633E+00   9.562724E+00   1.791525E+01   4.203382E+00   5.875230E-01   9.424765E-01   1.411529E+00   3.910250E+00   6.626390E+00   4.710312E+00   8.631740E+00   8.547156E+00   2.395613E+00   6.189190E+00   1.927431E+01   3.155292E-01   1.075984E+00   7.098923E-01   7.544857E-01   5.508444E+00   2.001093E-01   4.702972E+00   5.162589E+00   2.077347E-01   4.903656E+00   1.030110E+00   9.685404E-01   2.805507E+00   6.499314E+00   9.017208E-01   4.127407E+00   7.470056E+00   8.844221E-01   2.286468E+00   5.786304E-01   4.369845E-01   2.105128E-01   2.750612E-01   1.962281E-01   1.871709E+00   3.467129E-01   1.100001E+00   1.736117E+00   1.858312E+00   4.982694E-01   5.541267E-01   5.027227E+00   2.025384E-01   3.957511E+00   7.062496E+00   8.991709E+00   3.114912E+00   4.867157E+00   7.111030E-01   5.499021E-01   1.603122E+00   8.341624E-01   3.813425E+00   7.286563E+00   3.316844E+00   3.320941E+00   5.759467E+00   1.822214E+00   9.391448E-01   2.401682E+00   2.354934E-01   1.376659E+00   2.426577E+00   1.958336E+01   3.506387E-01   6.452356E+00   1.367305E+01   1.731457E+00   5.751605E+00   2.480345E-01   1.562523E+00   1.237464E+01   4.076106E-01   9.404943E-01   2.153070E+00   2.259841E-01   4.902954E-01   9.233037E+00   3.036082E+00   1.469289E+00   7.862353E+00   5.834582E-01   2.438724E+00   1.280454E+01   2.607321E-01   2.060903E+00   1.323302E+01   1.602818E+00   3.149971E+00   1.040099E+01   9.368068E+00   3.476638E-01   1.052527E+01   9.462273E+00   1.045403E+00   3.424243E-01   6.526954E-01   1.095122E+00   3.782564E+00   2.156797E-01   1.269259E+00   5.880031E+00   1.179023E+01   2.643369E+00   5.465307E+00   7.136195E+00   3.588832E+00   1.601132E+00   1.965531E-01   5.527838E-01   3.833651E+00   3.563153E+00   2.887650E+00   1.270657E+01   1.369636E+00   3.974448E+00   1.089820E+00   1.120070E+00   3.426550E+00   2.401792E+00   5.651421E-01   3.528851E+00   5.701625E+00   1.038196E+00   4.225481E+00   7.112960E+00   1.531586E+00   3.876189E+00   6.211913E+00   1.207975E+01   4.638017E+00   4.799573E+00   2.018096E-01   4.728655E+00   8.196389E+00   2.915243E+00   2.817830E+00   3.310189E+00   6.235833E-01   9.311540E-01   4.775156E+00   2.621464E-01   5.907187E-01   9.542006E+00   5.638390E+00   2.644605E+00   1.089182E+01   4.187921E-01   6.409003E-01   1.173227E+01   9.731187E+00   6.478502E-01   6.180205E+00   2.109859E-01   6.107970E-01   4.789952E+00   5.288804E-01   2.874434E+00   1.246845E+00   2.744488E-01   1.742897E+00   7.138067E+00   8.267506E+00   1.585490E+00   6.882385E+00   1.523413E+00   1.375635E+00   1.096326E+01   6.565722E-01   1.401520E+00   5.812281E+00   1.042775E+01   3.937392E+00   2.328010E+00   1.291638E+00   3.840312E+00   9.620544E+00   2.463448E+01  
[...]
<PointData Scalars="Diameter" Vectors="Velocity">
<DataArray type="Float32" Name="Diameter" format="ascii">
  4.000000E-01   4.000000E-01   4.000000E-01   4.000000E-01   4.000000E-01   4.000000E-01   4.000000E-01   4.000000E-01   4.000000E-01   4.000000E-01   4.000000E-01   4.000000E-01   4.000000E-01   4.000000E-01   4.000000E-01   4.000000E-01   4.000000E-01   4.000000E-01   4.000000E-01   4.000000E-01   4.000000E-01   4.000000E-01   4.000000E-01   4.000000E-01   4.000000E-01   4.000000E-01   4.000000E-01   4.000000E-01   4.000000E-01   4.000000E-01   4.000000E-01   4.000000E-01   4.000000E-01   4.000000E-01   4.000000E-01   4.000000E-01   4.000000E-01   4.000000E-01   4.000000E-01   4.000000E-01   4.000000E-01   4.000000E-01   4.000000E-01   4.000000E-01   4.000000E-01   4.000000E-01   4.000000E-01   4.000000E-01   4.000000E-01   4.000000E-01   4.000000E-01   4.000000E-01   4.000000E-01   4.000000E-01   4.000000E-01   4.000000E-01   4.000000E-01   4.000000E-01   4.000000E-01   4.000000E-01   4.000000E-01   4.000000E-01   4.000000E-01   4.000000E-01   4.000000E-01   4.000000E-01   4.000000E-01   4.000000E-01   4.000000E-01   4.000000E-01   4.000000E-01   4.000000E-01   4.000000E-01   4.000000E-01   4.000000E-01   4.000000E-01   4.000000E-01   4.000000E-01   4.000000E-01   4.000000E-01   4.000000E-01   4.000000E-01   4.000000E-01   4.000000E-01   4.000000E-01   4.000000E-01   4.000000E-01   4.000000E-01   4.000000E-01   4.000000E-01   4.000000E-01   4.000000E-01   4.000000E-01   4.000000E-01   4.000000E-01   4.000000E-01   4.000000E-01   4.000000E-01   4.000000E-01   4.000000E-01   4.000000E-01   4.000000E-01   4.000000E-01   4.000000E-01   4.000000E-01   4.000000E-01   4.000000E-01   4.000000E-01   4.000000E-01   4.000000E-01   4.000000E-01   4.000000E-01   4.000000E-01   4.000000E-01   4.000000E-01   4.000000E-01   4.000000E-01   4.000000E-01   4.000000E-01   4.000000E-01   4.000000E-01   4.000000E-01   4.000000E-01   4.000000E-01   4.000000E-01   4.000000E-01   4.000000E-01   4.000000E-01   4.000000E-01   4.000000E-01   4.000000E-01   4.000000E-01   4.000000E-01   4.000000E-01   4.000000E-01   4.000000E-01   4.000000E-01   4.000000E-01   4.000000E-01   4.000000E-01   4.000000E-01   4.000000E-01   4.000000E-01   4.000000E-01   4.000000E-01   4.000000E-01   4.000000E-01   4.000000E-01   4.000000E-01   4.000000E-01   4.000000E-01   4.000000E-01   4.000000E-01   4.000000E-01   4.000000E-01   4.000000E-01   4.000000E-01   4.000000E-01   4.000000E-01   4.000000E-01   4.000000E-01   4.000000E-01   4.000000E-01   4.000000E-01   4.000000E-01   4.000000E-01   4.000000E-01   4.000000E-01   4.000000E-01   4.000000E-01   4.000000E-01   4.000000E-01   4.000000E-01   4.000000E-01   4.000000E-01   4.000000E-01   4.000000E-01   4.000000E-01   4.000000E-01   4.000000E-01   4.000000E-01   4.000000E-01   4.000000E-01   4.000000E-01   4.000000E-01   4.000000E-01   4.000000E-01   4.000000E-01   4.000000E-01   4.000000E-01   4.000000E-01   4.000000E-01   4.000000E-01   4.000000E-01   4.000000E-01   4.000000E-01   4.000000E-01   4.000000E-01   4.000000E-01   4.000000E-01   4.000000E-01   4.000000E-01   4.000000E-01   4.000000E-01   4.000000E-01   4.000000E-01   4.000000E-01   4.000000E-01   4.000000E-01   4.000000E-01   4.000000E-01   4.000000E-01   4.000000E-01   4.000000E-01   4.000000E-01   4.000000E-01   4.000000E-01   4.000000E-01   4.000000E-01   4.000000E-01   4.000000E-01   4.000000E-01   4.000000E-01   4.000000E-01   4.000000E-01   4.000000E-01   4.000000E-01   4.000000E-01   4.000000E-01   4.000000E-01   4.000000E-01   4.000000E-01   4.000000E-01   4.000000E-01   4.000000E-01   4.000000E-01   4.000000E-01   4.000000E-01   4.000000E-01   4.000000E-01   4.000000E-01   4.000000E-01   4.000000E-01   4.000000E-01   4.000000E-01   4.000000E-01   4.000000E-01   4.000000E-01   4.000000E-01   4.000000E-01   4.000000E-01   4.000000E-01   4.000000E-01   4.000000E-01   4.000000E-01   4.000000E-01   4.000000E-01   4.000000E-01   4.000000E-01   4.000000E-01   4.000000E-01   4.000000E-01   4.000000E-01   4.000000E-01   4.000000E-01   4.000000E-01   4.000000E-01   4.000000E-01   4.000000E-01   4.000000E-01   4.000000E-01   4.000000E-01   4.000000E-01   4.000000E-01   4.000000E-01   4.000000E-01   4.000000E-01   4.000000E-01   4.000000E-01   4.000000E-01   4.000000E-01   4.000000E-01   4.000000E-01   4.000000E-01   4.000000E-01   4.000000E-01   4.000000E-01   4.000000E-01   4.000000E-01   4.000000E-01   4.000000E-01   4.000000E-01   4.000000E-01   4.000000E-01   4.000000E-01   4.000000E-01   4.000000E-01   4.000000E-01   4.000000E-01   4.000000E-01   4.000000E-01   4.000000E-01   4.000000E-01   4.000000E-01   4.000000E-01   4.000000E-01   4.000000E-01   4.000000E-01   4.000000E-01   4.000000E-01   4.000000E-01   4.000000E-01   4.000000E-01   4.000000E-01   4.000000E-01   4.000000E-01   4.000000E-01   4.000000E-01   4.000000E-01   4.000000E-01   4.000000E-01   4.000000E-01   4.000000E-01   4.000000E-01   4.000000E-01   4.000000E-01   4.000000E-01   4.000000E-01   4.000000E-01   4.000000E-01   4.000000E-01   4.000000E-01   4.000000E-01   4.000000E-01   4.000000E-01   4.000000E-01   4.000000E-01   4.000000E-01   4.000000E-01   4.000000E-01   4.000000E-01   4.000000E-01   4.000000E-01   4.000000E-01   4.000000E-01   4.000000E-01   4.000000E-01   4.000000E-01   4.000000E-01   4.000000E-01   4.000000E-01   4.000000E-01   4.000000E-01   4.000000E-01   4.000000E-01   4.000000E-01   4.000000E-01   4.000000E-01   4.000000E-01   4.000000E-01   4.000000E-01   4.000000E-01   4.000000E-01   4.000000E-01   4.000000E-01   4.000000E-01   4.000000E-01   4.000000E-01   4.000000E-01   4.000000E-01   4.000000E-01   4.000000E-01   4.000000E-01   4.000000E-01   4.000000E-01   4.000000E-01   4.000000E-01   4.000000E-01   4.000000E-01   4.000000E-01   4.000000E-01   4.000000E-01   4.000000E-01   4.000000E-01   4.000000E-01   4.000000E-01   4.000000E-01   4.000000E-01   4.000000E-01   4.000000E-01   4.000000E-01   4.000000E-01   4.000000E-01   4.000000E-01   4.000000E-01   4.000000E-01   4.000000E-01   4.000000E-01   4.000000E-01   4.000000E-01   4.000000E-01   4.000000E-01   4.000000E-01   4.000000E-01   4.000000E-01   4.000000E-01   4.000000E-01   4.000000E-01   4.000000E-01   4.000000E-01   4.000000E-01   4.000000E-01   4.000000E-01   4.000000E-01   4.000000E-01   4.000000E-01   4.000000E-01   4.000000E-01   4.000000E-01   4.000000E-01   4.000000E-01   4.000000E-01   4.000000E-01   4.000000E-01   4.000000E-01   4.000000E-01   4.000000E-01   4.000000E-01   4.000000E-01   4.000000E-01   4.000000E-01   4.000000E-01   4.000000E-01   4.000000E-01   4.000000E-01   4.000000E-01   4.000000E-01   4.000000E-01   4.000000E-01   4.000000E-01   4.000000E-01   4.000000E-01   4.000000E-01   4.000000E-01   4.000000E-01   4.000000E-01   4.000000E-01   4.000000E-01   4.000000E-01   4.000000E-01   4.000000E-01   4.000000E-01   4.000000E-01   4.000000E-01   4.000000E-01   4.000000E-01   4.000000E-01   4.000000E-01   4.000000E-01   4.000000E-01   4.000000E-01   4.000000E-01   4.000000E-01   4.000000E-01   4.000000E-01   4.000000E-01   4.000000E-01   4.000000E-01   4.000000E-01   4.000000E-01   4.000000E-01   4.000000E-01   4.000000E-01   4.000000E-01   4.000000E-01   4.000000E-01   4.000000E-01   4.000000E-01   4.000000E-01   4.000000E-01   4.000000E-01   4.000000E-01   4.000000E-01   4.000000E-01   4.000000E-01   4.000000E-01   4.000000E-01   4.000000E-01   4.000000E-01   4.000000E-01   4.000000E-01   4.000000E-01   4.000000E-01   4.000000E-01   4.000000E-01   4.000000E-01   4.000000E-01   4.000000E-01   4.000000E-01   4.000000E-01   4.000000E-01   4.000000E-01   4.000000E-01   4.000000E-01   4.000000E-01   4.000000E-01   4.000000E-01   4.000000E-01   4.000000E-01   4.000000E-01   4.000000E-01   4.000000E-01   4.000000E-01   4.000000E-01   4.000000E-01   4.000000E-01   4.000000E-01   4.000000E-01   4.000000E-01   4.000000E-01   4.000000E-01   4.000000E-01   4.000000E-01   4.000000E-01   4.000000E-01   4.000000E-01   4.000000E-01   4.000000E-01   4.000000E-01   4.000000E-01   4.000000E-01   4.000000E-01   4.000000E-01   4.000000E-01   4.000000E-01   4.000000E-01   4.000000E-01   4.000000E-01   4.000000E-01   4.000000E-01   4.000000E-01   4.000000E-01   4.000000E-01   4.000000E-01   4.000000E-01   4.000000E-01   4.000000E-01   4.000000E-01   4.000000E-01   4.000000E-01   4.000000E-01   4.000000E-01   4.000000E-01   4.000000E-01   4.000000E-01   4.000000E-01   4.000000E-01   4.000000E-01   4.000000E-01   4.000000E-01   4.000000E-01   4.000000E-01   4.000000E-01   4.000000E-01   4.000000E-01   4.000000E-01   4.000000E-01   4.000000E-01   4.000000E-01   4.000000E-01   4.000000E-01   4.000000E-01   4.000000E-01   4.000000E-01   4.000000E-01   4.000000E-01   4.000000E-01   4.000000E-01   4.000000E-01   4.000000E-01   4.000000E-01   4.000000E-01   4.000000E-01   4.000000E-01   4.000000E-01   4.000000E-01   4.000000E-01   4.000000E-01   4.000000E-01   4.000000E-01   4.000000E-01   4.000000E-01   4.000000E-01   4.000000E-01   4.000000E-01   4.000000E-01   4.000000E-01   4.000000E-01   4.000000E-01   4.000000E-01   4.000000E-01   4.000000E-01   4.000000E-01   4.000000E-01   4.000000E-01   4.000000E-01   4.000000E-01   4.000000E-01   4.000000E-01   4.000000E-01   4.000000E-01   4.000000E-01   4.000000E-01   4.000000E-01   4.000000E-01   4.000000E-01   4.000000E-01   4.000000E-01   4.000000E-01   4.000000E-01   4.000000E-01   4.000000E-01   4.000000E-01   4.000000E-01   4.000000E-01   4.000000E-01   4.000000E-01   4.000000E-01   4.000000E-01   4.000000E-01   4.000000E-01   4.000000E-01   4.000000E-01   4.000000E-01   4.000000E-01   4.000000E-01   4.000000E-01   4.000000E-01   4.000000E-01   4.000000E-01   4.000000E-01   4.000000E-01   4.000000E-01   4.000000E-01   4.000000E-01   4.000000E-01   4.000000E-01   4.000000E-01   4.000000E-01   4.000000E-01   4.000000E-01   4.000000E-01   4.000000E-01   4.000000E-01   4.000000E-01   4.000000E-01   4.000000E-01   4.000000E-01   4.000000E-01   4.000000E-01   4.000000E-01   4.000000E-01   4.000000E-01   4.000000E-01   4.000000E-01   4.000000E-01   4.000000E-01   4.000000E-01   4.000000E-01   4.000000E-01   4.000000E-01   4.000000E-01   4.000000E-01   4.000000E-01   4.000000E-01   4.000000E-01   4.000000E-01   4.000000E-01   4.000000E-01   4.000000E-01   4.000000E-01   4.000000E-01   4.000000E-01   4.000000E-01   4.000000E-01   4.000000E-01   4.000000E-01   4.000000E-01   4.000000E-01   4.000000E-01   4.000000E-01   4.000000E-01   4.000000E-01   4.000000E-01   4.000000E-01   4.000000E-01   4.000000E-01   4.000000E-01   4.000000E-01   4.000000E-01   4.000000E-01   4.000000E-01   4.000000E-01   4.000000E-01   4.000000E-01   4.000000E-01   4.000000E-01   4.000000E-01   4.000000E-01   4.000000E-01   4.000000E-01   4.000000E-01   4.000000E-01   4.000000E-01   4.000000E-01   4.000000E-01   4.000000E-01   4.000000E-01   4.000000E-01   4.000000E-01   4.000000E-01   4.000000E-01   4.000000E-01   4.000000E-01   4.000000E-01   4.000000E-01   4.000000E-01   4.000000E-01   4.000000E-01   4.000000E-01   4.000000E-01   4.000000E-01   4.000000E-01   4.000000E-01   4.000000E-01   4.000000E-01   4.000000E-01   4.000000E-01   4.000000E-01   4.000000E-01   4.000000E-01   4.000000E-01   4.000000E-01   4.000000E-01   4.000000E-01   4.000000E-01   4.000000E-01   4.000000E-01   4.000000E-01   4.000000E-01   4.000000E-01   4.000000E-01   4.000000E-01   4.000000E-01   4.000000E-01   4.000000E-01   4.000000E-01   4.000000E-01   4.000000E-01   4.000000E-01   4.000000E-01   4.000000E-01   4.000000E-01   4.000000E-01   4.000000E-01   4.000000E-01   4.000000E-01   4.000000E-01   4.000000E-01   4.000000E-01   4.000000E-01   4.000000E-01   4.000000E-01   4.000000E-01   4.000000E-01   4.000000E-01   4.000000E-01   4.000000E-01   4.000000E-01   4.000000E-01   4.000000E-01   4.000000E-01   4.000000E-01   4.000000E-01   4.000000E-01   4.000000E-01   4.000000E-01   4.000000E-01   4.000000E-01   4.000000E-01   4.000000E-01   4.000000E-01   4.000000E-01   4.000000E-01   4.000000E-01   4.000000E-01   4.000000E-01   4.000000E-01   4.000000E-01   4.000000E-01   4.000000E-01   4.000000E-01   4.000000E-01   4.000000E-01   4.000000E-01   4.000000E-01   4.000000E-01   4.000000E-01   4.000000E-01   4.000000E-01   4.000000E-01   4.000000E-01   4.000000E-01   4.000000E-01   4.000000E-01   4.000000E-01   4.000000E-01   4.000000E-01   4.000000E-01   4.000000E-01   4.000000E-01   4.000000E-01   4.000000E-01   4.000000E-01   4.000000E-01   4.000000E-01   4.000000E-01   4.000000E-01   4.000000E-01   4.000000E-01   4.000000E-01   4.000000E-01   4.000000E-01   4.000000E-01   4.000000E-01   4.000000E-01   4.000000E-01   4.000000E-01   4.000000E-01   4.000000E-01   4.000000E-01   4.000000E-01   4.000000E-01   4.000000E-01   4.000000E-01   4.000000E-01   4.000000E-01   4.000000E-01   4.000000E-01   4.000000E-01   4.000000E-01   4.000000E-01   4.000000E-01   4.000000E-01   4.000000E-01   4.000000E-01   4.000000E-01   4.000000E-01   4.000000E-01   4.000000E-01   4.000000E-01   4.000000E-01   4.000000E-01   4.000000E-01   4.000000E-01   4.000000E-01   4.000000E-01   4.000000E-01   4.000000E-01   4.000000E-01   4.000000E-01   4.000000E-01   4.000000E-01   4.000000E-01   4.000000E-01   4.000000E-01   4.000000E-01   4.000000E-01   4.000000E-01   4.000000E-01   4.000000E-01   4.000000E-01   4.000000E-01   4.000000E-01   4.000000E-01   4.000000E-01   4.000000E-01   4.000000E-01   4.000000E-01   4.000000E-01   4.000000E-01   4.000000E-01   4.000000E-01   4.000000E-01   4.000000E-01   4.000000E-01   4.000000E-01   4.000000E-01   4.000000E-01   4.000000E-01   4.000000E-01   4.000000E-01   4.000000E-01   4.000000E-01   4.000000E-01   4.000000E-01   4.000000E-01   4.000000E-01   4.000000E-01   4.000000E-01   4.000000E-01   4.000000E-01   4.000000E-01   4.000000E-01   4.000000E-01   4.000000E-01   4.000000E-01   4.000000E-01   4.000000E-01   4.000000E-01   4.000000E-01   4.000000E-01   4.000000E-01   4.000000E-01   4.000000E-01   4.000000E-01   4.000000E-01   4.000000E-01   4.000000E-01   4.000000E-01   4.000000E-01   4.000000E-01   4.000000E-01   4.000000E-01   4.000000E-01   4.000000E-01   4.000000E-01   4.000000E-01   4.000000E-01   4.000000E-01   4.000000E-01   4.000000E-01   4.000000E-01   4.000000E-01   4.000000E-01   4.000000E-01   4.000000E-01   4.000000E-01   4.000000E-01   4.000000E-01   4.000000E-01   4.000000E-01   4.000000E-01   4.000000E-01   4.000000E-01   4.000000E-01   4.000000E-01   4.000000E-01   4.000000E-01   4.000000E-01   4.000000E-01   4.000000E-01   4.000000E-01   4.000000E-01   4.000000E-01   4.000000E-01   4.000000E-01   4.000000E-01   4.000000E-01   4.000000E-01   4.000000E-01   4.000000E-01   4.000000E-01   4.000000E-01   4.000000E-01   4.000000E-01   4.000000E-01   4.000000E-01   4.000000E-01   4.000000E-01   4.000000E-01   4.000000E-01   4.000000E-01   4.000000E-01   4.000000E-01   4.000000E-01   4.000000E-01   4.000000E-01   4.000000E-01   4.000000E-01   4.000000E-01   4.000000E-01   4.000000E-01   4.000000E-01   4.000000E-01   4.000000E-01   4.000000E-01   4.000000E-01   4.000000E-01   4.000000E-01   4.000000E-01   4.000000E-01   4.000000E-01   4.000000E-01   4.000000E-01   4.000000E-01   4.000000E-01   4.000000E-01   4.000000E-01   4.000000E-01   4.000000E-01   4.000000E-01   4.000000E-01   4.000000E-01   4.000000E-01   4.000000E-01   4.000000E-01   4.000000E-01   4.000000E-01   4.000000E-01   4.000000E-01   4.000000E-01   4.000000E-01   4.000000E-01   4.000000E-01   4.000000E-01   4.000000E-01   4.000000E-01   4.000000E-01   4.000000E-01   4.000000E-01   4.000000E-01   4.000000E-01   4.000000E-01   4.000000E-01   4.000000E-01   4.000000E-01   4.000000E-01   4.000000E-01   4.000000E-01   4.000000E-01   4.000000E-01   4.000000E-01   4.000000E-01   4.000000E-01   4.000000E-01   4.000000E-01   4.000000E-01   4.000000E-01   4.000000E-01   4.000000E-01   4.000000E-01   4.000000E-01   4.000000E-01   4.000000E-01   4.000000E-01   4.000000E-01   4.000000E-01   4.000000E-01   4.000000E-01   4.000000E-01   4.000000E-01   4.000000E-01   4.000000E-01   4.000000E-01   4.000000E-01   4.000000E-01   4.000000E-01   4.000000E-01   4.000000E-01   4.000000E-01   4.000000E-01   4.000000E-01   4.000000E-01   4.000000E-01   4.000000E-01   4.000000E-01   4.000000E-01   4.000000E-01   4.000000E-01   4.000000E-01   4.000000E-01   4.000000E-01   4.000000E-01   4.000000E-01   4.000000E-01   4.000000E-01   4.000000E-01   4.000000E-01   4.000000E-01   4.000000E-01   4.000000E-01   4.000000E-01   4.000000E-01   4.000000E-01   4.000000E-01   4.000000E-01   4.000000E-01   4.000000E-01   4.000000E-01   4.000000E-01   4.000000E-01   4.000000E-01   4.000000E-01   4.000000E-01   4.000000E-01   4.000000E-01   4.000000E-01   4.000000E-01   4.000000E-01   4.000000E-01   4.000000E-01   4.000000E-01   4.000000E-01   4.000000E-01   4.000000E-01   4.000000E-01   4.000000E-01   4.000000E-01   4.000000E-01   4.000000E-01   4.000000E-01   4.000000E-01   4.000000E-01   4.000000E-01   4.000000E-01   4.000000E-01   4.000000E-01   4.000000E-01   4.000000E-01   4.000000E-01   4.000000E-01   4.000000E-01   4.000000E-01   4.000000E-01   4.000000E-01   4.000000E-01   4.000000E-01   4.000000E-01   4.000000E-01   4.000000E-01   4.000000E-01   4.000000E-01   4.000000E-01   4.000000E-01   4.000000E-01   4.000000E-01   4.000000E-01   4.000000E-01   4.000000E-01   4.000000E-01   4.000000E-01   4.000000E-01   4.000000E-01   4.000000E-01   4.000000E-01   4.000000E-01   4.000000E-01   4.000000E-01   4.000000E-01   4.000000E-01   4.000000E-01   4.000000E-01   4.000000E-01   4.000000E-01   4.000000E-01   4.000000E-01   4.000000E-01   4.000000E-01   4.000000E-01   4.000000E-01   4.000000E-01   4.000000E-01   4.000000E-01   4.000000E-01   4.000000E-01   4.000000E-01   4.000000E-01   4.000000E-01   4.000000E-01   4.000000E-01   4.000000E-01   4.000000E-01   4.000000E-01   4.000000E-01   4.000000E-01   4.000000E-01   4.000000E-01   4.000000E-01   4.000000E-01   4.000000E-01   4.000000E-01   4.000000E-01   4.000000E-01   4.000000E-01   4.000000E-01   4.000000E-01   4.000000E-01   4.000000E-01   4.000000E-01   4.000000E-01   4.000000E-01   4.000000E-01   4.000000E-01   4.000000E-01   4.000000E-01   4.000000E-01   4.000000E-01   4.000000E-01   4.000000E-01   4.000000E-01   4.000000E-01   4.000000E-01   4.000000E-01   4.000000E-01   4.000000E-01   4.000000E-01   4.000000E-01   4.000000E-01   4.000000E-01   4.000000E-01   4.000000E-01   4.000000E-01   4.000000E-01   4.000000E-01   4.000000E-01   4.000000E-01   4.000000E-01   4.000000E-01   4.000000E-01   4.000000E-01   4.000000E-01   4.000000E-01   4.000000E-01   4.000000E-01   4.000000E-01   4.000000E-01   4.000000E-01   4.000000E-01   4.000000E-01   4.000000E-01   4.000000E-01   4.000000E-01   4.000000E-01   4.000000E-01   4.000000E-01   4.000000E-01   4.000000E-01   4.000000E-01   4.000000E-01   4.000000E-01   4.000000E-01   4.000000E-01   4.000000E-01   4.000000E-01   4.000000E-01   4.000000E-01   4.000000E-01   4.000000E-01   4.000000E-01   4.000000E-01   4.000000E-01   4.000000E-01   4.000000E-01   4.000000E-01   4.000000E-01   4.000000E-01   4.000000E-01   4.000000E-01   4.000000E-01   4.000000E-01   4.000000E-01   4.000000E-01   4.000000E-01   4.000000E-01   4.000000E-01   4.000000E-01   4.000000E-01   4.000000E-01   4.000000E-01   4.000000E-01   4.000000E-01   4.000000E-01   4.000000E-01   4.000000E-01   4.000000E-01   4.000000E-01   4.000000E-01   4.000000E-01   4.000000E-01   4.000000E-01   4.000000E-01   4.000000E-01   4.000000E-01   4.000000E-01   4.000000E-01   4.000000E-01   4.000000E-01   4.000000E-01   4.000000E-01   4.000000E-01   4.000000E-01   4.000000E-01   4.000000E-01   4.000000E-01   4.000000E-01   4.000000E-01   4.000000E-01   4.000000E-01   4.000000E-01   4.000000E-01   4.000000E-01   4.000000E-01   4.000000E-01   4.000000E-01   4.000000E-01   4.000000E-01   4.000000E-01   4.000000E-01   4.000000E-01   4.000000E-01   4.000000E-01   4.000000E-01   4.000000E-01   4.000000E-01   4.000000E-01   