<?xml version="1.0"?>
<!-- Time =  1.7001176260280280E+00s -->
<VTKFile type="PolyData" version="0.1" byte_order="LittleEndian">
<PolyData>
<Piece NumberOfPoints="0000002400" NumberOfVerts="0" NumberOfLines="0" NumberOfStrips="0" NumberOfPolys="0">
<Points>
<DataArray type="Float32" Name="Position" NumberOfComponents="3" format="ascii">
  9.383116E-01   1.998288E-01   1.991138E-01   3.564695E+00   9.773329E+00   1.071590E+00   6.344689E+00   1.096490E+00   2.296156E+00   8.419486E+00   2.038809E-01   8.073960E-01   1.130168E+00   6.041105E-01   2.437803E+00   7.994864E+00   1.852095E+01   4.976121E+00   6.405810E+00   4.330875E-01   2.051953E-01   1.029792E+01   5.591570E+00   1.475020E+00   1.162073E+01   3.679183E-01   3.529939E+00   1.122453E+01   9.527891E+00   4.157156E+00   1.700833E+00   4.179129E-01   3.852731E+00   7.831476E+00   5.821035E+00   3.732565E+00   1.152475E+01   1.448198E+01   1.032910E+00   7.048064E+00   1.552570E+00   2.059175E+00   2.714242E+00   5.821809E-01   1.822192E+00   9.189454E+00   3.327145E+00   8.509742E-01   1.220577E+01   1.384583E+00   1.606968E+00   2.001021E+00   5.664794E-01   4.233471E-01   1.101728E+01   2.213146E+00   4.931920E+00   4.289153E+00   7.250422E+00   2.621474E+00   5.636386E+00   1.996540E-01   2.903115E+00   1.181259E+01   2.052511E-01   3.128232E+00   6.984366E+00   4.735290E+00   1.157188E+00   3.456279E-01   5.648683E+00   3.572387E+00   6.889333E+00   4.660266E-01   4.666245E+00   2.815016E+00   8.850070E-01   4.148062E+00   1.160249E+01   6.947048E+00   3.148087E+00   6.021548E+00   5.047081E+00   7.162601E-01   1.839377E+00   1.422506E+00   1.033569E+00   1.168038E+01   2.570695E+00   2.269717E+00   5.727590E+00   8.024344E-01   2.025962E-01   1.054764E+00   2.028885E-01   1.508254E+00   4.142006E-01   6.833567E-01   2.273847E+00   8.990540E+00   1.056822E+01   3.523020E+00   4.260060E+00   9.617540E-01   3.238212E-01   4.401310E+00   2.154549E-01   1.603603E+00   1.004169E+01   1.199287E+01   3.273552E+00   1.894431E+00   7.098647E+00   1.126306E+00   1.787760E+00   2.252541E-01   3.453602E+00   1.252227E+01   1.073495E+01   4.205164E+00   5.274827E+00   1.171690E+01   1.745077E+00   2.291615E+00   9.488550E+00   4.746317E-01   5.579694E+00   7.486402E-01   4.042670E+00   1.391542E+01   2.881433E-01   2.723140E+00   1.034694E+01   5.816470E-01   6.825835E-01   1.666979E+00   2.050131E-01   1.380562E+00   1.266074E+01   8.063980E-01   4.675741E+00   7.009176E+00   7.292688E-01   2.906164E+00   8.334929E+00   9.464742E+00   2.218901E+00   1.020087E+01   2.035716E-01   2.730171E+00   7.716271E+00   9.733057E+00   3.921038E+00   5.264542E+00   2.024123E-01   2.568894E+00   9.890823E+00   2.455328E-01   1.337265E+00   2.353682E+00   5.854175E-01   1.160152E+00   8.885375E+00   4.981660E-01   1.758045E+00   2.907534E+00   2.762278E+00   3.548674E+00   9.281656E+00   4.857185E+00   4.074001E+00   3.306054E+00   2.415710E-01   2.189776E-01   3.870418E+00   2.019665E-01   2.165236E-01   7.985242E+00   1.372461E+00   6.532692E-01   9.562144E+00   1.073504E+01   1.287357E+00   1.465093E+01   4.017787E+00   2.602578E+00   3.807462E+00   4.146731E-01   5.508891E-01   5.485270E+00   2.002066E-01   1.218172E+00   1.662076E+00   6.441844E-01   3.488257E+00   6.462307E+00   1.517293E+01   1.945946E+00   4.764794E+00   4.216734E+00   3.418091E+00   1.029314E+01   4.694224E-01   4.795264E+00   1.385423E+01   1.291293E+00   4.241799E+00   2.183306E+00   1.390782E+00   4.941773E+00   1.778847E+00   9.105703E-01   2.240215E+00   4.001575E+00   1.192493E+00   3.979474E+00   1.321854E+01   1.325891E+01   4.130347E+00   9.137068E+00   1.272077E+00   1.387164E+00   1.302315E+01   7.921913E-01   1.606142E+00   2.650469E+00   1.646440E+00   4.693474E+00   5.597698E+00   1.282399E+01   2.793010E+00   1.417761E+01   8.090233E-01   4.346509E-01   1.377721E+01   4.801788E+00   8.508322E-01   1.052699E+01   1.540056E+01   1.836937E+00   1.095330E+01   3.509097E-01   3.212503E+00   1.248098E+00   2.093912E-01   1.150068E+00   2.373334E+00   3.682357E-01   2.944813E+00   9.403882E+00   1.093550E+01   4.576682E-01   7.951095E+00   3.293388E+00   6.580992E-01   4.695070E+00   7.419734E-01   2.592761E+00   8.609305E+00   1.063475E+01   3.991746E+00   5.398980E+00   6.200554E+00   2.310800E-01   5.868003E+00   9.920163E-01   1.370704E+00   3.252877E+00   3.226380E+00   2.788936E+00   3.457734E+00   3.174201E+00   7.355071E-01   4.809536E+00   1.131945E+00   1.852282E+00   2.937052E+00   4.027899E-01   2.169914E-01   1.306670E+01   2.911395E-01   4.172826E-01   1.004787E+01   8.360100E+00   4.131847E+00   8.800512E+00   7.977851E+00   2.792479E+00   6.199670E+00   8.558035E+00   4.778630E+00   4.835895E+00   1.963890E-01   3.240662E+00   9.278611E+00   1.160885E+01   2.375615E+00   2.014868E-01   1.987866E-01   4.730896E+00   3.038507E+00   9.796067E-01   2.152575E+00   2.391646E-01   1.022648E+00   4.546479E+00   6.299817E+00   2.014760E-01   5.351487E-01   1.580011E+00   1.471739E+01   2.058763E+00   4.381438E+00   1.974143E-01   2.280950E+00   1.169867E+01   5.663973E-01   6.049477E-01   3.104359E-01   9.223329E-01   3.544462E+00   5.541341E+00   1.339058E+00   3.258547E+00   2.099485E+00   2.019279E-01   1.314374E+00   6.527072E+00   1.748948E+01   2.865059E-01   1.383517E+01   5.445709E-01   3.606937E+00   6.969059E+00   1.582422E+01   3.110615E+00   2.216178E+00   1.933132E+00   1.609662E+00   7.379766E+00   3.851039E+00   7.363346E-01   4.551212E+00   1.980119E-01   2.932615E+00   3.903781E+00   8.629039E-01   5.162444E-01   4.236997E+00   9.614894E-01   1.760683E+00   6.747375E+00   2.305918E-01   1.020975E+00   1.968734E+00   4.487847E-01   4.290587E+00   7.878314E+00   1.153342E+01   2.730973E+00   1.419055E+01   2.975211E-01   4.887891E+00   7.603458E+00   2.182569E+00   1.718687E+00   3.817897E+00   9.247596E+00   1.391346E+00   3.511139E+00   3.392313E-01   2.225278E+00   5.305410E-01   1.832469E+00   4.914812E+00   5.337423E+00   5.417675E-01   1.052610E+00   6.144763E+00   9.435620E+00   4.174163E+00   4.626668E+00   3.249397E-01   3.595444E+00   1.206342E+01   1.171355E+01   4.354450E+00   6.533141E+00   1.839245E+01   3.472214E+00   3.355698E+00   6.296192E+00   4.153127E+00   8.814313E+00   2.090786E+01   4.578501E-01   9.880435E+00   1.102047E+00   3.987119E+00   4.303559E+00   5.867586E-01   4.894221E-01   7.061947E+00   7.942833E-01   4.966953E+00   2.412546E+00   1.468783E+00   3.162214E-01   1.439085E+01   1.359630E+00   3.901565E+00   9.088437E+00   3.218322E-01   1.042633E+00   1.327455E+01   6.755649E+00   4.278784E+00   5.879835E+00   2.005515E-01   5.879888E-01   5.386017E+00   9.120246E-01   1.287369E+00   1.411425E+01   2.104727E-01   2.205148E+00   1.389003E+00   2.043036E-01   1.996212E-01   5.050481E+00   1.457488E+00   1.222377E+00   5.662794E+00   1.309606E+01   2.478029E+00   1.013140E+01   3.618036E-01   1.703176E+00   7.364256E+00   1.733604E+00   2.236299E+00   8.293797E-01   1.006743E+00   2.416538E+00   4.572450E+00   7.540848E-01   1.599794E+00   5.472639E+00   5.922319E-01   4.526092E+00   3.311810E+00   1.189552E+01   5.565399E-01   4.158708E+00   8.893037E-01   2.561213E+00   7.505427E+00   1.285185E+00   1.609777E+00   9.926518E+00   3.524638E-01   4.005934E+00   3.099323E+00   6.572748E+00   2.008827E-01   7.130731E+00   7.560827E+00   4.444796E+00   2.495216E+00   3.571070E-01   4.913090E+00   3.050298E+00   5.494483E-01   4.674044E+00   5.883634E+00   3.051363E+00   4.233333E+00   1.168733E+01   6.156245E-01   3.251840E+00   7.612044E+00   3.752780E+00   2.335531E+00   7.541869E-01   5.657962E-01   2.001276E-01   2.107879E-01   2.164669E-01   2.429743E+00   7.422541E-01   2.365732E-01   2.187570E+00   3.154974E+00   5.362050E+00   1.029467E+00   2.095798E+00   1.116380E+00   4.261774E+00   1.205762E+01   6.465181E-01   8.831466E-01   5.782567E+00   2.163180E-01   3.311615E+00   6.497104E+00   8.494089E-01   2.174345E-01   1.623564E+00   9.395654E+00   2.674779E+00   8.900455E+00   7.256645E+00   5.901201E-01   5.273429E+00   2.898318E-01   6.851771E-01   2.494518E-01   6.368291E+00   9.896864E-01   6.031801E+00   4.460007E+00   3.689471E+00   6.589454E+00   7.613987E+00   3.991647E+00   2.543446E+00   2.292158E-01   1.303647E+00   1.265779E+01   2.564151E-01   2.309036E+00   1.180366E+00   7.807668E-01   6.411982E-01   1.373062E+01   1.096080E+01   5.081933E-01   7.577802E+00   2.122857E+00   3.111960E+00   1.436003E+01   3.750988E+00   4.242198E+00   8.092656E+00   3.647560E+00   2.719074E+00   4.771943E+00   6.299267E-01   2.193513E+00   5.014973E+00   1.341012E+00   3.508339E+00   6.629119E+00   1.239337E+00   8.300610E-01   1.313177E+00   4.399455E-01   8.211091E-01   9.690004E+00   5.137829E-01   3.396468E+00   5.033875E+00   5.184653E-01   2.493382E+00   1.116976E+00   1.987898E-01   5.623938E-01   1.159910E+01   6.549246E-01   2.740991E+00   8.408778E+00   2.742149E+00   3.049684E+00   1.478619E+00   6.565806E+00   3.022141E+00   6.064981E+00   8.434138E-01   2.067657E+00   1.467848E+01   1.617547E+00   2.834416E+00   1.021520E+01   9.776769E-01   2.888857E+00   1.616315E+00   1.006543E+00   5.969162E-01   2.521515E+00   2.199800E-01   5.479524E-01   1.194917E+01   7.597165E-01   2.353231E+00   1.357694E+01   5.046988E-01   1.351912E+00   1.210814E+01   1.451650E+00   1.038926E+00   3.462003E+00   2.063839E-01   5.976425E-01   8.957474E-01   5.903100E-01   2.079793E+00   3.151800E+00   1.622075E+01   3.862685E+00   4.492942E+00   4.989514E-01   3.187268E+00   3.672273E+00   2.495124E-01   1.405706E+00   1.244650E+01   1.553135E+01   3.816130E+00   3.898546E+00   1.407801E+01   3.893947E+00   1.055291E+01   3.266481E-01   1.573563E+00   1.965328E+00   9.905277E+00   3.636598E+00   7.880466E+00   3.022862E+00   2.436881E+00   1.364511E+01   1.669872E+00   3.237678E+00   1.090064E+01   1.758194E+00   4.282624E+00   5.622568E+00   9.012868E-01   1.701164E+00   1.030494E+01   9.587679E+00   3.463486E+00   9.482260E+00   8.272763E-01  
[...]
<PointData Scalars="Diameter" Vectors="Velocity">
<DataArray type="Float32" Name="Diameter" format="ascii">
  4.000000E-01   4.000000E-01   4.000000E-01   4.000000E-01   4.000000E-01   4.000000E-01   4.000000E-01   4.000000E-01   4.000000E-01   4.000000E-01   4.000000E-01   4.000000E-01   4.000000E-01   4.000000E-01   4.000000E-01   4.000000E-01   4.000000E-01   4.000000E-01   4.000000E-01   4.000000E-01   4.000000E-01   4.000000E-01   4.000000E-01   4.000000E-01   4.000000E-01   4.000000E-01   4.000000E-01   4.000000E-01   4.000000E-01   4.000000E-01   4.000000E-01   4.000000E-01   4.000000E-01   4.000000E-01   4.000000E-01   4.000000E-01   4.000000E-01   4.000000E-01   4.000000E-01   4.000000E-01   4.000000E-01   4.000000E-01   4.000000E-01   4.000000E-01   4.000000E-01   4.000000E-01   4.000000E-01   4.000000E-01   4.000000E-01   4.000000E-01   4.000000E-01   4.000000E-01   4.000000E-01   4.000000E-01   4.000000E-01   4.000000E-01   4.000000E-01   4.000000E-01   4.000000E-01   4.000000E-01   4.000000E-01   4.000000E-01   4.000000E-01   4.000000E-01   4.000000E-01   4.000000E-01   4.000000E-01   4.000000E-01   4.000000E-01   4.000000E-01   4.000000E-01   4.000000E-01   4.000000E-01   4.000000E-01   4.000000E-01   4.000000E-01   4.000000E-01   4.000000E-01   4.000000E-01   4.000000E-01   4.000000E-01   4.000000E-01   4.000000E-01   4.000000E-01   4.000000E-01   4.000000E-01   4.000000E-01   4.000000E-01   4.000000E-01   4.000000E-01   4.000000E-01   4.000000E-01   4.000000E-01   4.000000E-01   4.000000E-01   4.000000E-01   4.000000E-01   4.000000E-01   4.000000E-01   4.000000E-01   4.000000E-01   4.000000E-01   4.000000E-01   4.000000E-01   4.000000E-01   4.000000E-01   4.000000E-01   4.000000E-01   4.000000E-01   4.000000E-01   4.000000E-01   4.000000E-01   4.000000E-01   4.000000E-01   4.000000E-01   4.000000E-01   4.000000E-01   4.000000E-01   4.000000E-01   4.000000E-01   4.000000E-01   4.000000E-01   4.000000E-01   4.000000E-01   4.000000E-01   4.000000E-01   4.000000E-01   4.000000E-01   4.000000E-01   4.000000E-01   4.000000E-01   4.000000E-01   4.000000E-01   4.000000E-01   4.000000E-01   4.000000E-01   4.000000E-01   4.000000E-01   4.000000E-01   4.000000E-01   4.000000E-01   4.000000E-01   4.000000E-01   4.000000E-01   4.000000E-01   4.000000E-01   4.000000E-01   4.000000E-01   4.000000E-01   4.000000E-01   4.000000E-01   4.000000E-01   4.000000E-01   4.000000E-01   4.000000E-01   4.000000E-01   4.000000E-01   4.000000E-01   4.000000E-01   4.000000E-01   4.000000E-01   4.000000E-01   4.000000E-01   4.000000E-01   4.000000E-01   4.000000E-01   4.000000E-01   4.000000E-01   4.000000E-01   4.000000E-01   4.000000E-01   4.000000E-01   4.000000E-01   4.000000E-01   4.000000E-01   4.000000E-01   4.000000E-01   4.000000E-01   4.000000E-01   4.000000E-01   4.000000E-01   4.000000E-01   4.000000E-01   4.000000E-01   4.000000E-01   4.000000E-01   4.000000E-01   4.000000E-01   4.000000E-01   4.000000E-01   4.000000E-01   4.000000E-01   4.000000E-01   4.000000E-01   4.000000E-01   4.000000E-01   4.000000E-01   4.000000E-01   4.000000E-01   4.000000E-01   4.000000E-01   4.000000E-01   4.000000E-01   4.000000E-01   4.000000E-01   4.000000E-01   4.000000E-01   4.000000E-01   4.000000E-01   4.000000E-01   4.000000E-01   4.000000E-01   4.000000E-01   4.000000E-01   4.000000E-01   4.000000E-01   4.000000E-01   4.000000E-01   4.000000E-01   4.000000E-01   4.000000E-01   4.000000E-01   4.000000E-01   4.000000E-01   4.000000E-01   4.000000E-01   4.000000E-01   4.000000E-01   4.000000E-01   4.000000E-01   4.000000E-01   4.000000E-01   4.000000E-01   4.000000E-01   4.000000E-01   4.000000E-01   4.000000E-01   4.000000E-01   4.000000E-01   4.000000E-01   4.000000E-01   4.000000E-01   4.000000E-01   4.000000E-01   4.000000E-01   4.000000E-01   4.000000E-01   4.000000E-01   4.000000E-01   4.000000E-01   4.000000E-01   4.000000E-01   4.000000E-01   4.000000E-01   4.000000E-01   4.000000E-01   4.000000E-01   4.000000E-01   4.000000E-01   4.000000E-01   4.000000E-01   4.000000E-01   4.000000E-01   4.000000E-01   4.000000E-01   4.000000E-01   4.000000E-01   4.000000E-01   4.000000E-01   4.000000E-01   4.000000E-01   4.000000E-01   4.000000E-01   4.000000E-01   4.000000E-01   4.000000E-01   4.000000E-01   4.000000E-01   4.000000E-01   4.000000E-01   4.000000E-01   4.000000E-01   4.000000E-01   4.000000E-01   4.000000E-01   4.000000E-01   4.000000E-01   4.000000E-01   4.000000E-01   4.000000E-01   4.000000E-01   4.000000E-01   4.000000E-01   4.000000E-01   4.000000E-01   4.000000E-01   4.000000E-01   4.000000E-01   4.000000E-01   4.000000E-01   4.000000E-01   4.000000E-01   4.000000E-01   4.000000E-01   4.000000E-01   4.000000E-01   4.000000E-01   4.000000E-01   4.000000E-01   4.000000E-01   4.000000E-01   4.000000E-01   4.000000E-01   4.000000E-01   4.000000E-01   4.000000E-01   4.000000E-01   4.000000E-01   4.000000E-01   4.000000E-01   4.000000E-01   4.000000E-01   4.000000E-01   4.000000E-01   4.000000E-01   4.000000E-01   4.000000E-01   4.000000E-01   4.000000E-01   4.000000E-01   4.000000E-01   4.000000E-01   4.000000E-01   4.000000E-01   4.000000E-01   4.000000E-01   4.000000E-01   4.000000E-01   4.000000E-01   4.000000E-01   4.000000E-01   4.000000E-01   4.000000E-01   4.000000E-01   4.000000E-01   4.000000E-01   4.000000E-01   4.000000E-01   4.000000E-01   4.000000E-01   4.000000E-01   4.000000E-01   4.000000E-01   4.000000E-01   4.000000E-01   4.000000E-01   4.000000E-01   4.000000E-01   4.000000E-01   4.000000E-01   4.000000E-01   4.000000E-01   4.000000E-01   4.000000E-01   4.000000E-01   4.000000E-01   4.000000E-01   4.000000E-01   4.000000E-01   4.000000E-01   4.000000E-01   4.000000E-01   4.000000E-01   4.000000E-01   4.000000E-01   4.000000E-01   4.000000E-01   4.000000E-01   4.000000E-01   4.000000E-01   4.000000E-01   4.000000E-01   4.000000E-01   4.000000E-01   4.000000E-01   4.000000E-01   4.000000E-01   4.000000E-01   4.000000E-01   4.000000E-01   4.000000E-01   4.000000E-01   4.000000E-01   4.000000E-01   4.000000E-01   4.000000E-01   4.000000E-01   4.000000E-01   4.000000E-01   4.000000E-01   4.000000E-01   4.000000E-01   4.000000E-01   4.000000E-01   4.000000E-01   4.000000E-01   4.000000E-01   4.000000E-01   4.000000E-01   4.000000E-01   4.000000E-01   4.000000E-01   4.000000E-01   4.000000E-01   4.000000E-01   4.000000E-01   4.000000E-01   4.000000E-01   4.000000E-01   4.000000E-01   4.000000E-01   4.000000E-01   4.000000E-01   4.000000E-01   4.000000E-01   4.000000E-01   4.000000E-01   4.000000E-01   4.000000E-01   4.000000E-01   4.000000E-01   4.000000E-01   4.000000E-01   4.000000E-01   4.000000E-01   4.000000E-01   4.000000E-01   4.000000E-01   4.000000E-01   4.000000E-01   4.000000E-01   4.000000E-01   4.000000E-01   4.000000E-01   4.000000E-01   4.000000E-01   4.000000E-01   4.000000E-01   4.000000E-01   4.000000E-01   4.000000E-01   4.000000E-01   4.000000E-01   4.000000E-01   4.000000E-01   4.000000E-01   4.000000E-01   4.000000E-01   4.000000E-01   4.000000E-01   4.000000E-01   4.000000E-01   4.000000E-01   4.000000E-01   4.000000E-01   4.000000E-01   4.000000E-01   4.000000E-01   4.000000E-01   4.000000E-01   4.000000E-01   4.000000E-01   4.000000E-01   4.000000E-01   4.000000E-01   4.000000E-01   4.000000E-01   4.000000E-01   4.000000E-01   4.000000E-01   4.000000E-01   4.000000E-01   4.000000E-01   4.000000E-01   4.000000E-01   4.000000E-01   4.000000E-01   4.000000E-01   4.000000E-01   4.000000E-01   4.000000E-01   4.000000E-01   4.000000E-01   4.000000E-01   4.000000E-01   4.000000E-01   4.000000E-01   4.000000E-01   4.000000E-01   4.000000E-01   4.000000E-01   4.000000E-01   4.000000E-01   4.000000E-01   4.000000E-01   4.000000E-01   4.000000E-01   4.000000E-01   4.000000E-01   4.000000E-01   4.000000E-01   4.000000E-01   4.000000E-01   4.000000E-01   4.000000E-01   4.000000E-01   4.000000E-01   4.000000E-01   4.000000E-01   4.000000E-01   4.000000E-01   4.000000E-01   4.000000E-01   4.000000E-01   4.000000E-01   4.000000E-01   4.000000E-01   4.000000E-01   4.000000E-01   4.000000E-01   4.000000E-01   4.000000E-01   4.000000E-01   4.000000E-01   4.000000E-01   4.000000E-01   4.000000E-01   4.000000E-01   4.000000E-01   4.000000E-01   4.000000E-01   4.000000E-01   4.000000E-01   4.000000E-01   4.000000E-01   4.000000E-01   4.000000E-01   4.000000E-01   4.000000E-01   4.000000E-01   4.000000E-01   4.000000E-01   4.000000E-01   4.000000E-01   4.000000E-01   4.000000E-01   4.000000E-01   4.000000E-01   4.000000E-01   4.000000E-01   4.000000E-01   4.000000E-01   4.000000E-01   4.000000E-01   4.000000E-01   4.000000E-01   4.000000E-01   4.000000E-01   4.000000E-01   4.000000E-01   4.000000E-01   4.000000E-01   4.000000E-01   4.000000E-01   4.000000E-01   4.000000E-01   4.000000E-01   4.000000E-01   4.000000E-01   4.000000E-01   4.000000E-01   4.000000E-01   4.000000E-01   4.000000E-01   4.000000E-01   4.000000E-01   4.000000E-01   4.000000E-01   4.000000E-01   4.000000E-01   4.000000E-01   4.000000E-01   4.000000E-01   4.000000E-01   4.000000E-01   4.000000E-01   4.000000E-01   4.000000E-01   4.000000E-01   4.000000E-01   4.000000E-01   4.000000E-01   4.000000E-01   4.000000E-01   4.000000E-01   4.000000E-01   4.000000E-01   4.000000E-01   4.000000E-01   4.000000E-01   4.000000E-01   4.000000E-01   4.000000E-01   4.000000E-01   4.000000E-01   4.000000E-01   4.000000E-01   4.000000E-01   4.000000E-01   4.000000E-01   4.000000E-01   4.000000E-01   4.000000E-01   4.000000E-01   4.000000E-01   4.000000E-01   4.000000E-01   4.000000E-01   4.000000E-01   4.000000E-01   4.000000E-01   4.000000E-01   4.000000E-01   4.000000E-01   4.000000E-01   4.000000E-01   4.000000E-01   4.000000E-01   4.000000E-01   4.000000E-01   4.000000E-01   4.000000E-01   4.000000E-01   4.000000E-01   4.000000E-01   4.000000E-01   4.000000E-01   4.000000E-01   4.000000E-01   4.000000E-01   4.000000E-01   4.000000E-01   4.000000E-01   4.000000E-01   4.000000E-01   4.000000E-01   4.000000E-01   4.000000E-01   4.000000E-01   4.000000E-01   4.000000E-01   4.000000E-01   4.000000E-01   4.000000E-01   4.000000E-01   4.000000E-01   4.000000E-01   4.000000E-01   4.000000E-01   4.000000E-01   4.000000E-01   4.000000E-01   4.000000E-01   4.000000E-01   4.000000E-01   4.000000E-01   4.000000E-01   4.000000E-01   4.000000E-01   4.000000E-01   4.000000E-01   4.000000E-01   4.000000E-01   4.000000E-01   4.000000E-01   4.000000E-01   4.000000E-01   4.000000E-01   4.000000E-01   4.000000E-01   4.000000E-01   4.000000E-01   4.000000E-01   4.000000E-01   4.000000E-01   4.000000E-01   4.000000E-01   4.000000E-01   4.000000E-01   4.000000E-01   4.000000E-01   4.000000E-01   4.000000E-01   4.000000E-01   4.000000E-01   4.000000E-01   4.000000E-01   4.000000E-01   4.000000E-01   4.000000E-01   4.000000E-01   4.000000E-01   4.000000E-01   4.000000E-01   4.000000E-01   4.000000E-01   4.000000E-01   4.000000E-01   4.000000E-01   4.000000E-01   4.000000E-01   4.000000E-01   4.000000E-01   4.000000E-01   4.000000E-01   4.000000E-01   4.000000E-01   4.000000E-01   4.000000E-01   4.000000E-01   4.000000E-01   4.000000E-01   4.000000E-01   4.000000E-01   4.000000E-01   4.000000E-01   4.000000E-01   4.000000E-01   4.000000E-01   4.000000E-01   4.000000E-01   4.000000E-01   4.000000E-01   4.000000E-01   4.000000E-01   4.000000E-01   4.000000E-01   4.000000E-01   4.000000E-01   4.000000E-01   4.000000E-01   4.000000E-01   4.000000E-01   4.000000E-01   4.000000E-01   4.000000E-01   4.000000E-01   4.000000E-01   4.000000E-01   4.000000E-01   4.000000E-01   4.000000E-01   4.000000E-01   4.000000E-01   4.000000E-01   4.000000E-01   4.000000E-01   4.000000E-01   4.000000E-01   4.000000E-01   4.000000E-01   4.000000E-01   4.000000E-01   4.000000E-01   4.000000E-01   4.000000E-01   4.000000E-01   4.000000E-01   4.000000E-01   4.000000E-01   4.000000E-01   4.000000E-01   4.000000E-01   4.000000E-01   4.000000E-01   4.000000E-01   4.000000E-01   4.000000E-01   4.000000E-01   4.000000E-01   4.000000E-01   4.000000E-01   4.000000E-01   4.000000E-01   4.000000E-01   4.000000E-01   4.000000E-01   4.000000E-01   4.000000E-01   4.000000E-01   4.000000E-01   4.000000E-01   4.000000E-01   4.000000E-01   4.000000E-01   4.000000E-01   4.000000E-01   4.000000E-01   4.000000E-01   4.000000E-01   4.000000E-01   4.000000E-01   4.000000E-01   4.000000E-01   4.000000E-01   4.000000E-01   4.000000E-01   4.000000E-01   4.000000E-01   4.000000E-01   4.000000E-01   4.000000E-01   4.000000E-01   4.000000E-01   4.000000E-01   4.000000E-01   4.000000E-01   4.000000E-01   4.000000E-01   4.000000E-01   4.000000E-01   4.000000E-01   4.000000E-01   4.000000E-01   4.000000E-01   4.000000E-01   4.000000E-01   4.000000E-01   4.000000E-01   4.000000E-01   4.000000E-01   4.000000E-01   4.000000E-01   4.000000E-01   4.000000E-01   4.000000E-01   4.000000E-01   4.000000E-01   4.000000E-01   4.000000E-01   4.000000E-01   4.000000E-01   4.000000E-01   4.000000E-01   4.000000E-01   4.000000E-01   4.000000E-01   4.000000E-01   4.000000E-01   4.000000E-01   4.000000E-01   4.000000E-01   4.000000E-01   4.000000E-01   4.000000E-01   4.000000E-01   4.000000E-01   4.000000E-01   4.000000E-01   4.000000E-01   4.000000E-01   4.000000E-01   4.000000E-01   4.000000E-01   4.000000E-01   4.000000E-01   4.000000E-01   4.000000E-01   4.000000E-01   4.000000E-01   4.000000E-01   4.000000E-01   4.000000E-01   4.000000E-01   4.000000E-01   4.000000E-01   4.000000E-01   4.000000E-01   4.000000E-01   4.000000E-01   4.000000E-01   4.000000E-01   4.000000E-01   4.000000E-01   4.000000E-01   4.000000E-01   4.000000E-01   4.000000E-01   4.000000E-01   4.000000E-01   4.000000E-01   4.000000E-01   4.000000E-01   4.000000E-01   4.000000E-01   4.000000E-01   4.000000E-01   4.000000E-01   4.000000E-01   4.000000E-01   4.000000E-01   4.000000E-01   4.000000E-01   4.000000E-01   4.000000E-01   4.000000E-01   4.000000E-01   4.000000E-01   4.000000E-01   4.000000E-01   4.000000E-01   4.000000E-01   4.000000E-01   4.000000E-01   4.000000E-01   4.000000E-01   4.000000E-01   4.000000E-01   4.000000E-01   4.000000E-01   4.000000E-01   4.000000E-01   4.000000E-01   4.000000E-01   4.000000E-01   4.000000E-01   4.000000E-01   4.000000E-01   4.000000E-01   4.000000E-01   4.000000E-01   4.000000E-01   4.000000E-01   4.000000E-01   4.000000E-01   4.000000E-01   4.000000E-01   4.000000E-01   4.000000E-01   4.000000E-01   4.000000E-01   4.000000E-01   4.000000E-01   4.000000E-01   4.000000E-01   4.000000E-01   4.000000E-01   4.000000E-01   4.000000E-01   4.000000E-01   4.000000E-01   4.000000E-01   4.000000E-01   4.000000E-01   4.000000E-01   4.000000E-01   4.000000E-01   4.000000E-01   4.000000E-01   4.000000E-01   4.000000E-01   4.000000E-01   4.000000E-01   4.000000E-01   4.000000E-01   4.000000E-01   4.000000E-01   4.000000E-01   4.000000E-01   4.000000E-01   4.000000E-01   4.000000E-01   4.000000E-01   4.000000E-01   4.000000E-01   4.000000E-01   4.000000E-01   4.000000E-01   4.000000E-01   4.000000E-01   4.000000E-01   4.000000E-01   4.000000E-01   4.000000E-01   4.000000E-01   4.000000E-01   4.000000E-01   4.000000E-01   4.000000E-01   4.000000E-01   4.000000E-01   4.000000E-01   4.000000E-01   4.000000E-01   4.000000E-01   4.000000E-01   4.000000E-01   4.000000E-01   4.000000E-01   4.000000E-01   4.000000E-01   4.000000E-01   4.000000E-01   4.000000E-01   4.000000E-01   4.000000E-01   4.000000E-01   4.000000E-01   4.000000E-01   4.000000E-01   4.000000E-01   4.000000E-01   4.000000E-01   4.000000E-01   4.000000E-01   4.000000E-01   4.000000E-01   4.000000E-01   4.000000E-01   4.000000E-01   4.000000E-01   4.000000E-01   4.000000E-01   4.000000E-01   4.000000E-01   4.000000E-01   4.000000E-01   4.000000E-01   4.000000E-01   4.000000E-01   4.000000E-01   4.000000E-01   4.000000E-01   4.000000E-01   4.000000E-01   4.000000E-01   4.000000E-01   4.000000E-01   4.000000E-01   4.000000E-01   4.000000E-01   4.000000E-01   4.000000E-01   4.000000E-01   4.000000E-01   4.000000E-01   4.000000E-01   4.000000E-01   4.000000E-01   4.000000E-01   4.000000E-01   4.000000E-01   4.000000E-01   4.000000E-01   4.000000E-01   4.000000E-01   4.000000E-01   4.000000E-01   4.000000E-01   4.000000E-01   4.000000E-01   4.000000E-01   4.000000E-01   4.000000E-01   4.000000E-01   4.000000E-01   4.000000E-01   4.000000E-01   4.000000E-01   4.000000E-01   4.000000E-01   4.000000E-01   4.000000E-01   4.000000E-01   4.000000E-01   4.000000E-01   4.000000E-01   4.000000E-01   4.000000E-01   4.000000E-01   4.000000E-01   4.000000E-01   4.000000E-01   4.000000E-01   4.000000E-01   4.000000E-01   4.000000E-01   4.000000E-01   4.000000E-01   4.000000E-01   4.000000E-01   4.000000E-01   4.000000E-01   4.000000E-01   4.000000E-01   4.000000E-01   4.000000E-01   4.000000E-01   4.000000E-01   4.000000E-01   4.000000E-01   4.000000E-01   4.000000E-01   4.000000E-01   4.000000E-01   4.000000E-01   4.000000E-01   4.000000E-01   4.000000E-01   4.000000E-01   4.000000E-01   4.000000E-01   4.000000E-01   4.000000E-01   4.000000E-01   4.000000E-01   4.000000E-01   4.000000E-01   4.000000E-01   4.000000E-01   4.000000E-01   4.000000E-01   4.000000E-01   4.000000E-01   4.000000E-01   4.000000E-01   4.000000E-01   4.000000E-01   4.000000E-01   4.000000E-01   4.000000E-01   4.000000E-01   4.000000E-01   4.000000E-01   4.000000E-01   4.000000E-01   4.000000E-01   4.000000E-01   4.000000E-01   4.000000E-01   4.000000E-01   4.000000E-01   4.000000E-01   4.000000E-01   4.000000E-01   4.000000E-01   4.000000E-01   4.000000E-01   4.000000E-01   4.000000E-01   4.000000E-01   4.000000E-01   4.000000E-01   4.000000E-01   4.000000E-01   4.000000E-01   4.000000E-01   4.000000E-01   4.000000E-01   4.000000E-01   4.000000E-01   4.000000E-01   4.000000E-01   4.000000E-01   4.000000E-01   4.000000E-01   4.000000E-01   4.000000E-01   4.000000E-01   4.000000E-01   4.000000E-01   4.000000E-01   4.000000E-01   4.000000E-01   4.000000E-01   4.000000E-01   4.000000E-01   4.000000E-01   4.000000E-01   4.000000E-01   4.000000E-01   4.000000E-01   4.000000E-01   4.000000E-01   4.000000E-01   4.000000E-01   4.000000E-01   4.000000E-01   4.000000E-01   4.000000E-01   4.000000E-01   4.000000E-01   4.000000E-01   4.000000E-01   4.000000E-01   4.000000E-01   4.000000E-01   4.000000E-01   4.000000E-01   4.000000E-01   4.000000E-01   4.000000E-01   4.000000E-01   4.000000E-01   4.000000E-01   4.000000E-01   4.000000E-01   4.000000E-01   4.000000E-01   4.000000E-01   4.000000E-01   4.000000E-01   4.000000E-01   4.000000E-01   4.000000E-01   4.000000E-01   4.000000E-01   4.000000E-01   4.000000E-01   4.000000E-01   4.000000E-01   4.000000E-01   4.000000E-01   4.000000E-01   4.000000E-01   4.000000E-01   4.000000E-01   4.000000E-01   4.000000E-01   4.000000E-01   4.000000E-01   4.000000E-01   4.000000E-01   4.000000E-01   4.000000E-01   4.000000E-01   4.000000E-01   4.000000E-01   4.000000E-01   4.000000E-01   4.000000E-01   4.000000E-01   4.000000E-01   4.000000E-01   4.000000E-01   4.000000E-01   4.000000E-01   4.000000E-01   4.000000E-01   4.000000E-01   4.000000E-01   4.000000E-01   4.000000E-01   4.000000E-01   4.000000E-01   4.000000E-01   4.000000E-01   4.000000E-01   4.000000E-01   4.000000E-01   4.000000E-01   4.000000E-01   4.000000E-01   4.000000E-01   4.000000E-01   4.000000E-01   4.000000E-01   4.000000E-01   4.000000E-01   4.000000E-01   4.000000E-01   4.000000E-01   4.000000E-01   4.000000E-01   4.000000E-01   4.000000E-01   4.000000E-01   4.000000E-01   4.000000E-01   4.000000E-01   4.000000E-01   4.000000E-01   4.000000E-01   4.000000E-01   4.000000E-01   4.000000E-01   4.000000E-01   4.000000E-01   4.000000E-01   4.000000E-01   4.000000E-01   4.000000E-01   4.000000E-01   4.000000E-01   4.000000E-01   4.000000E-01   4.000000E-01   4.000000E-01   4.000000E-01   4.000000E-01   4.000000E-01   4.000000E-01   4.000000E-01   4.000000E-01   4.000000E-01   4.000000E-01   4.000000E-01   4.000000E-01   4.000000E-01   4.000000E-01   4.000000E-01   4.000000E-01   4.000000E-01   4.000000E-01   4.000000E-01   4.000000E-01   