<?xml version="1.0"?>
<!-- Time =  3.6008976260278946E+00s -->
<VTKFile type="PolyData" version="0.1" byte_order="LittleEndian">
<PolyData>
<Piece NumberOfPoints="0000002400" NumberOfVerts="0" NumberOfLines="0" NumberOfStrips="0" NumberOfPolys="0">
<Points>
<DataArray type="Float32" Name="Position" NumberOfComponents="3" format="ascii">
  7.948122E+00   5.423429E+00   2.863259E+00   9.664191E+00   1.898597E+01   3.663717E+00   7.107080E+00   2.356258E-01   4.246202E+00   4.095736E+00   2.072015E-01   2.998116E+00   1.090274E+01   5.271002E-01   3.880868E+00   7.722479E+00   2.313555E+00   4.670990E+00   1.200219E+01   1.247905E+01   3.308781E+00   4.568598E+00   2.053446E-01   2.129820E+00   7.264356E+00   1.788692E+01   4.987205E+00   1.365084E+01   2.128787E+00   1.238927E+00   5.167201E+00   6.512496E-01   3.626254E+00   3.375821E+00   5.830081E-01   2.338447E+00   2.473603E+00   4.507459E+00   1.804155E+00   1.042300E+00   2.561018E-01   3.596344E+00   1.387621E+01   1.184988E+01   1.529716E+00   5.295872E+00   2.091760E-01   4.627892E+00   1.118104E+01   1.512208E+01   3.973274E+00   5.141868E+00   1.337483E+01   3.653018E-01   8.656425E+00   7.479705E-01   2.270478E+00   7.832806E+00   4.665472E-01   4.876798E+00   6.052947E+00   1.876081E+01   3.891176E+00   3.890347E+00   9.791040E-01   4.143113E+00   4.612989E+00   5.094678E-01   1.665792E+00   4.856565E+00   2.085045E-01   4.576246E+00   3.607682E+00   2.293554E-01   4.724144E+00   1.285083E+00   1.306902E+00   4.338096E+00   7.285021E+00   3.014832E+00   2.248743E+00   4.307777E+00   2.748984E+00   3.200976E-01   1.041320E+01   6.069994E-01   2.971470E+00   1.059277E+01   3.062406E-01   5.666994E-01   2.336396E+00   6.644837E-01   3.613124E+00   6.534004E-01   8.204886E+00   2.114723E+00   1.121248E+00   8.220231E-01   1.614177E+00   9.153270E+00   1.277444E+00   3.144697E+00   2.509465E+00   7.770588E-01   1.705685E+00   6.594951E+00   4.041381E-01   8.125274E-01   1.461114E+01   2.860101E+00   4.479360E+00   1.049797E+01   1.621415E+01   4.298182E+00   7.520627E+00   8.766637E-01   2.248789E+00   2.968797E+00   2.039138E-01   2.908439E+00   1.527871E+00   3.441747E+00   4.808223E+00   1.007362E+01   9.072185E+00   3.835083E+00   5.032425E+00   2.262324E-01   2.764193E+00   4.013417E+00   2.049065E-01   4.530958E+00   7.849233E+00   1.579905E+01   3.569448E+00   7.776626E+00   3.639029E+00   6.994976E-01   9.829543E+00   2.085190E+01   3.350812E+00   1.253685E+01   1.422741E+00   1.075772E+00   6.363286E+00   1.112375E+00   4.140302E-01   8.518097E+00   1.007442E+00   4.123366E+00   8.380258E+00   5.312456E-01   1.142649E+00   1.196966E+00   4.786604E+00   3.031595E+00   6.690177E+00   1.762241E+01   3.235593E+00   1.278956E+01   5.414428E-01   2.106457E+00   9.484733E+00   1.288777E+01   4.964434E+00   8.879529E+00   5.222786E+00   2.340673E+00   6.348246E+00   2.065699E-01   2.031113E-01   2.932577E-01   1.975951E-01   4.347060E+00   1.334201E+01   1.057583E+00   1.731584E+00   1.177983E+01   1.449539E+00   3.867164E+00   9.141109E+00   1.299202E+00   3.951012E-01   9.359502E-01   9.518291E+00   3.535908E+00   3.522768E+00   2.053822E-01   6.388249E-01   3.561445E+00   5.659491E-01   3.138844E+00   1.216240E+01   8.394752E-01   2.996545E+00   1.063079E+01   3.988059E-01   3.529770E+00   9.320858E+00   1.519606E+01   1.151376E+00   9.790437E+00   6.247934E+00   1.464728E+00   5.291918E+00   2.003778E-01   6.217808E-01   5.922697E+00   7.519979E-01   3.567376E+00   9.470131E+00   9.778935E+00   4.281003E+00   2.425984E+00   5.402210E-01   7.367062E-01   3.816833E+00   1.446785E+00   2.607613E+00   1.271994E+01   3.769020E+00   2.463410E+00   4.768818E+00   5.634596E-01   9.694336E-01   9.944088E+00   7.916587E+00   4.669582E+00   4.811385E-01   8.574375E+00   4.400626E+00   5.433248E+00   4.888152E-01   2.990997E+00   1.312054E+01   5.897432E-01   2.512782E+00   8.929487E+00   1.056086E+01   4.752956E+00   9.673633E+00   2.759457E-01   4.936255E+00   5.316440E+00   4.343221E-01   3.933535E+00   8.025109E+00   1.398638E+01   1.572862E+00   6.431866E+00   2.247151E-01   2.815514E+00   9.041630E+00   4.830132E+00   1.996966E+00   2.323222E-01   2.326242E-01   2.005035E-01   3.390983E+00   1.314761E+00   3.138608E+00   6.150900E+00   2.072760E-01   4.226104E+00   5.542807E+00   4.665601E+00   1.931695E+00   6.225877E+00   1.389898E+00   1.971278E+00   3.027526E+00   2.250925E-01   1.767213E+00   6.437198E+00   2.744926E+00   1.776359E+00   6.100748E+00   4.955223E+00   2.891685E+00   4.962501E+00   1.158222E+01   3.775127E+00   5.376245E+00   7.082701E+00   1.497187E+00   1.214069E+00   8.613213E-01   4.220900E+00   5.809510E+00   8.829845E+00   2.807569E+00   7.759637E+00   3.182025E+00   3.072320E+00   1.136314E+00   1.106250E+01   3.135707E+00   9.146184E+00   1.946804E+01   3.992256E+00   7.726839E+00   2.374587E+00   2.273393E+00   4.478327E+00   2.026124E-01   9.736030E-01   7.550964E+00   3.204063E+00   2.676167E+00   3.418375E+00   9.562336E+00   8.400021E-01   4.590724E+00   2.110053E+00   1.397149E+00   1.470850E+01   9.731259E-01   4.904812E+00   1.398340E+01   3.270972E+00   1.013457E+00   7.991345E-01   9.966354E+00   2.727353E+00   4.341088E+00   3.715008E-01   5.616632E-01   1.331609E+01   5.838176E-01   6.231859E-01   2.441710E+00   9.814423E-01   3.318399E+00   6.052061E+00   3.690616E-01   2.095246E+00   8.629167E+00   6.156985E+00   2.464067E+00   5.665894E+00   2.000506E-01   1.301127E+00   6.427939E+00   2.487145E-01   3.447856E+00   3.813347E+00   2.162933E-01   9.354298E-01   7.048282E+00   8.091437E+00   3.088584E+00   7.159916E+00   1.193321E+01   3.757998E+00   9.428941E+00   9.142143E+00   2.137201E+00   9.081596E+00   2.240011E-01   4.601416E+00   1.220853E+01   9.329582E+00   3.430109E+00   5.607322E+00   9.999517E+00   3.569156E+00   3.358047E+00   2.842565E-01   2.911246E+00   6.495826E+00   1.447282E+01   3.439608E+00   2.967833E+00   1.147191E+01   1.684537E+00   4.255845E+00   8.311797E+00   4.497070E-01   1.644235E+00   3.811312E-01   3.732735E+00   9.631481E+00   1.030281E+01   2.269251E+00   9.602111E+00   6.621892E+00   4.076570E+00   1.064389E+01   1.768629E+00   4.124404E+00   3.631689E+00   2.030414E-01   2.336583E+00   1.101665E+01   2.477319E+00   2.115091E+00   4.099809E+00   8.541079E+00   1.698412E+00   8.552886E+00   7.411066E+00   2.816518E+00   1.796860E+00   7.032967E+00   1.801059E+00   5.477977E+00   5.096484E-01   4.853044E+00   7.096655E+00   1.822461E+01   4.651584E+00   2.722105E+00   1.279064E+01   1.793547E+00   2.917012E+00   1.410257E+01   3.241048E+00   4.853939E+00   2.016273E-01   1.745061E+00   3.924389E+00   1.544481E+01   4.354748E+00   6.025720E+00   4.691585E+00   7.077073E-01   1.429032E+01   6.114295E-01   4.451913E+00   3.852925E+00   1.684920E+01   2.930186E+00   1.437588E+01   3.390888E-01   2.750395E+00   3.919686E+00   1.996755E-01   4.083235E+00   2.285777E+00   2.351260E-01   4.171486E+00   1.156419E+01   1.581412E+01   1.847568E+00   1.432539E+00   7.300389E+00   2.853479E+00   9.092444E+00   7.855061E-01   1.269580E+00   6.693800E+00   6.595933E+00   4.847544E+00   1.175001E+01   8.616688E-01   3.582103E+00   1.143929E+01   6.771712E-01   1.832039E+00   3.881466E+00   1.279354E+00   2.974780E+00   9.553123E+00   1.252148E+00   3.124226E-01   5.277978E+00   1.144823E+01   5.980252E-01   1.146990E+01   6.159855E-01   3.400689E+00   8.148034E+00   5.590207E+00   2.482715E+00   8.808373E+00   5.497560E+00   3.390201E+00   1.479202E+01   2.859271E-01   2.825877E+00   1.985207E+00   1.718065E+01   3.734742E+00   1.563129E+00   1.997635E-01   2.000929E-01   8.295472E+00   1.677224E+00   9.321707E-01   1.296981E+00   6.744583E-01   6.496843E-01   7.890562E-01   2.118684E-01   2.171318E-01   1.189166E+01   9.906958E+00   3.255646E+00   1.012704E+01   1.933749E+01   2.800286E+00   3.662154E+00   1.071256E+01   2.289040E+00   4.164894E+00   5.489646E-01   4.752239E+00   6.546710E+00   1.535858E+01   4.512967E+00   5.213369E-01   1.516052E+01   4.100430E-01   4.119994E+00   2.016729E-01   2.145068E+00   4.123824E+00   2.509821E-01   1.281292E+00   9.061419E+00   1.002784E+01   4.662572E+00   5.317234E+00   2.451639E+00   4.029777E+00   4.728856E+00   5.827965E-01   3.542637E+00   5.009604E+00   1.683064E+01   4.852472E+00   2.246837E+00   1.446155E+01   3.897732E+00   7.576990E+00   1.437416E+01   4.829922E+00   4.602237E+00   8.528316E-01   1.455602E+00   5.494274E+00   2.048392E-01   2.206632E-01   5.721630E+00   1.304745E+01   2.565403E+00   8.555722E+00   1.186258E+00   4.733955E+00   2.246393E+00   9.361513E-01   2.823352E+00   7.383519E+00   1.841797E+01   4.313756E+00   2.530323E+00   9.185471E-01   1.309503E+00   9.344793E+00   4.492445E-01   4.317854E+00   5.566803E-01   6.163968E-01   4.447946E+00   7.395266E+00   1.224086E+00   2.910454E+00   1.209164E+01   8.620597E+00   2.434677E+00   6.471397E+00   9.387066E-01   3.038700E+00   5.722059E+00   8.141214E-01   7.543466E-01   1.004222E+01   1.030232E+00   3.911711E-01   4.997396E+00   4.695492E-01   6.552026E-01   8.300426E+00   1.615076E+01   1.489473E+00   1.324538E+01   1.769094E+01   4.020453E+00   1.322610E+00   1.152117E+01   9.760858E-01   2.453359E+00   1.988626E-01   2.179718E+00   5.969702E+00   6.706466E-01   2.457969E+00   5.890895E+00   1.704310E+01   4.470796E+00   9.488639E+00   1.423189E+01   4.558589E+00   1.278876E+01   2.196417E-01   4.868083E+00   8.266488E+00   4.293197E-01   1.799567E+00   6.254738E+00   2.854009E+00   4.408710E+00   2.340343E+00   1.721631E+00   3.851167E+00   9.383330E-01   7.137172E+00   1.902149E+00   1.033187E+01   1.076971E+00   1.250397E+00   8.505877E+00   4.576115E+00   2.565015E+00   8.340074E+00   2.535987E+00   3.168907E+00   3.781337E+00   4.106980E-01   2.029048E+00   6.046672E+00   1.243566E+01   2.788233E+00   7.710648E+00   1.686808E+00   4.489439E-01   2.076103E+00   2.075230E-01   4.925891E+00   9.511238E+00   7.894061E-01   3.280447E+00   7.865945E+00   5.809618E+00  
[...]
<PointData Scalars="Diameter" Vectors="Velocity">
<DataArray type="Float32" Name="Diameter" format="ascii">
  4.000000E-01   4.000000E-01   4.000000E-01   4.000000E-01   4.000000E-01   4.000000E-01   4.000000E-01   4.000000E-01   4.000000E-01   4.000000E-01   4.000000E-01   4.000000E-01   4.000000E-01   4.000000E-01   4.000000E-01   4.000000E-01   4.000000E-01   4.000000E-01   4.000000E-01   4.000000E-01   4.000000E-01   4.000000E-01   4.000000E-01   4.000000E-01   4.000000E-01   4.000000E-01   4.000000E-01   4.000000E-01   4.000000E-01   4.000000E-01   4.000000E-01   4.000000E-01   4.000000E-01   4.000000E-01   4.000000E-01   4.000000E-01   4.000000E-01   4.000000E-01   4.000000E-01   4.000000E-01   4.000000E-01   4.000000E-01   4.000000E-01   4.000000E-01   4.000000E-01   4.000000E-01   4.000000E-01   4.000000E-01   4.000000E-01   4.000000E-01   4.000000E-01   4.000000E-01   4.000000E-01   4.000000E-01   4.000000E-01   4.000000E-01   4.000000E-01   4.000000E-01   4.000000E-01   4.000000E-01   4.000000E-01   4.000000E-01   4.000000E-01   4.000000E-01   4.000000E-01   4.000000E-01   4.000000E-01   4.000000E-01   4.000000E-01   4.000000E-01   4.000000E-01   4.000000E-01   4.000000E-01   4.000000E-01   4.000000E-01   4.000000E-01   4.000000E-01   4.000000E-01   4.000000E-01   4.000000E-01   4.000000E-01   4.000000E-01   4.000000E-01   4.000000E-01   4.000000E-01   4.000000E-01   4.000000E-01   4.000000E-01   4.000000E-01   4.000000E-01   4.000000E-01   4.000000E-01   4.000000E-01   4.000000E-01   4.000000E-01   4.000000E-01   4.000000E-01   4.000000E-01   4.000000E-01   4.000000E-01   4.000000E-01   4.000000E-01   4.000000E-01   4.000000E-01   4.000000E-01   4.000000E-01   4.000000E-01   4.000000E-01   4.000000E-01   4.000000E-01   4.000000E-01   4.000000E-01   4.000000E-01   4.000000E-01   4.000000E-01   4.000000E-01   4.000000E-01   4.000000E-01   4.000000E-01   4.000000E-01   4.000000E-01   4.000000E-01   4.000000E-01   4.000000E-01   4.000000E-01   4.000000E-01   4.000000E-01   4.000000E-01   4.000000E-01   4.000000E-01   4.000000E-01   4.000000E-01   4.000000E-01   4.000000E-01   4.000000E-01   4.000000E-01   4.000000E-01   4.000000E-01   4.000000E-01   4.000000E-01   4.000000E-01   4.000000E-01   4.000000E-01   4.000000E-01   4.000000E-01   4.000000E-01   4.000000E-01   4.000000E-01   4.000000E-01   4.000000E-01   4.000000E-01   4.000000E-01   4.000000E-01   4.000000E-01   4.000000E-01   4.000000E-01   4.000000E-01   4.000000E-01   4.000000E-01   4.000000E-01   4.000000E-01   4.000000E-01   4.000000E-01   4.000000E-01   4.000000E-01   4.000000E-01   4.000000E-01   4.000000E-01   4.000000E-01   4.000000E-01   4.000000E-01   4.000000E-01   4.000000E-01   4.000000E-01   4.000000E-01   4.000000E-01   4.000000E-01   4.000000E-01   4.000000E-01   4.000000E-01   4.000000E-01   4.000000E-01   4.000000E-01   4.000000E-01   4.000000E-01   4.000000E-01   4.000000E-01   4.000000E-01   4.000000E-01   4.000000E-01   4.000000E-01   4.000000E-01   4.000000E-01   4.000000E-01   4.000000E-01   4.000000E-01   4.000000E-01   4.000000E-01   4.000000E-01   4.000000E-01   4.000000E-01   4.000000E-01   4.000000E-01   4.000000E-01   4.000000E-01   4.000000E-01   4.000000E-01   4.000000E-01   4.000000E-01   4.000000E-01   4.000000E-01   4.000000E-01   4.000000E-01   4.000000E-01   4.000000E-01   4.000000E-01   4.000000E-01   4.000000E-01   4.000000E-01   4.000000E-01   4.000000E-01   4.000000E-01   4.000000E-01   4.000000E-01   4.000000E-01   4.000000E-01   4.000000E-01   4.000000E-01   4.000000E-01   4.000000E-01   4.000000E-01   4.000000E-01   4.000000E-01   4.000000E-01   4.000000E-01   4.000000E-01   4.000000E-01   4.000000E-01   4.000000E-01   4.000000E-01   4.000000E-01   4.000000E-01   4.000000E-01   4.000000E-01   4.000000E-01   4.000000E-01   4.000000E-01   4.000000E-01   4.000000E-01   4.000000E-01   4.000000E-01   4.000000E-01   4.000000E-01   4.000000E-01   4.000000E-01   4.000000E-01   4.000000E-01   4.000000E-01   4.000000E-01   4.000000E-01   4.000000E-01   4.000000E-01   4.000000E-01   4.000000E-01   4.000000E-01   4.000000E-01   4.000000E-01   4.000000E-01   4.000000E-01   4.000000E-01   4.000000E-01   4.000000E-01   4.000000E-01   4.000000E-01   4.000000E-01   4.000000E-01   4.000000E-01   4.000000E-01   4.000000E-01   4.000000E-01   4.000000E-01   4.000000E-01   4.000000E-01   4.000000E-01   4.000000E-01   4.000000E-01   4.000000E-01   4.000000E-01   4.000000E-01   4.000000E-01   4.000000E-01   4.000000E-01   4.000000E-01   4.000000E-01   4.000000E-01   4.000000E-01   4.000000E-01   4.000000E-01   4.000000E-01   4.000000E-01   4.000000E-01   4.000000E-01   4.000000E-01   4.000000E-01   4.000000E-01   4.000000E-01   4.000000E-01   4.000000E-01   4.000000E-01   4.000000E-01   4.000000E-01   4.000000E-01   4.000000E-01   4.000000E-01   4.000000E-01   4.000000E-01   4.000000E-01   4.000000E-01   4.000000E-01   4.000000E-01   4.000000E-01   4.000000E-01   4.000000E-01   4.000000E-01   4.000000E-01   4.000000E-01   4.000000E-01   4.000000E-01   4.000000E-01   4.000000E-01   4.000000E-01   4.000000E-01   4.000000E-01   4.000000E-01   4.000000E-01   4.000000E-01   4.000000E-01   4.000000E-01   4.000000E-01   4.000000E-01   4.000000E-01   4.000000E-01   4.000000E-01   4.000000E-01   4.000000E-01   4.000000E-01   4.000000E-01   4.000000E-01   4.000000E-01   4.000000E-01   4.000000E-01   4.000000E-01   4.000000E-01   4.000000E-01   4.000000E-01   4.000000E-01   4.000000E-01   4.000000E-01   4.000000E-01   4.000000E-01   4.000000E-01   4.000000E-01   4.000000E-01   4.000000E-01   4.000000E-01   4.000000E-01   4.000000E-01   4.000000E-01   4.000000E-01   4.000000E-01   4.000000E-01   4.000000E-01   4.000000E-01   4.000000E-01   4.000000E-01   4.000000E-01   4.000000E-01   4.000000E-01   4.000000E-01   4.000000E-01   4.000000E-01   4.000000E-01   4.000000E-01   4.000000E-01   4.000000E-01   4.000000E-01   4.000000E-01   4.000000E-01   4.000000E-01   4.000000E-01   4.000000E-01   4.000000E-01   4.000000E-01   4.000000E-01   4.000000E-01   4.000000E-01   4.000000E-01   4.000000E-01   4.000000E-01   4.000000E-01   4.000000E-01   4.000000E-01   4.000000E-01   4.000000E-01   4.000000E-01   4.000000E-01   4.000000E-01   4.000000E-01   4.000000E-01   4.000000E-01   4.000000E-01   4.000000E-01   4.000000E-01   4.000000E-01   4.000000E-01   4.000000E-01   4.000000E-01   4.000000E-01   4.000000E-01   4.000000E-01   4.000000E-01   4.000000E-01   4.000000E-01   4.000000E-01   4.000000E-01   4.000000E-01   4.000000E-01   4.000000E-01   4.000000E-01   4.000000E-01   4.000000E-01   4.000000E-01   4.000000E-01   4.000000E-01   4.000000E-01   4.000000E-01   4.000000E-01   4.000000E-01   4.000000E-01   4.000000E-01   4.000000E-01   4.000000E-01   4.000000E-01   4.000000E-01   4.000000E-01   4.000000E-01   4.000000E-01   4.000000E-01   4.000000E-01   4.000000E-01   4.000000E-01   4.000000E-01   4.000000E-01   4.000000E-01   4.000000E-01   4.000000E-01   4.000000E-01   4.000000E-01   4.000000E-01   4.000000E-01   4.000000E-01   4.000000E-01   4.000000E-01   4.000000E-01   4.000000E-01   4.000000E-01   4.000000E-01   4.000000E-01   4.000000E-01   4.000000E-01   4.000000E-01   4.000000E-01   4.000000E-01   4.000000E-01   4.000000E-01   4.000000E-01   4.000000E-01   4.000000E-01   4.000000E-01   4.000000E-01   4.000000E-01   4.000000E-01   4.000000E-01   4.000000E-01   4.000000E-01   4.000000E-01   4.000000E-01   4.000000E-01   4.000000E-01   4.000000E-01   4.000000E-01   4.000000E-01   4.000000E-01   4.000000E-01   4.000000E-01   4.000000E-01   4.000000E-01   4.000000E-01   4.000000E-01   4.000000E-01   4.000000E-01   4.000000E-01   4.000000E-01   4.000000E-01   4.000000E-01   4.000000E-01   4.000000E-01   4.000000E-01   4.000000E-01   4.000000E-01   4.000000E-01   4.000000E-01   4.000000E-01   4.000000E-01   4.000000E-01   4.000000E-01   4.000000E-01   4.000000E-01   4.000000E-01   4.000000E-01   4.000000E-01   4.000000E-01   4.000000E-01   4.000000E-01   4.000000E-01   4.000000E-01   4.000000E-01   4.000000E-01   4.000000E-01   4.000000E-01   4.000000E-01   4.000000E-01   4.000000E-01   4.000000E-01   4.000000E-01   4.000000E-01   4.000000E-01   4.000000E-01   4.000000E-01   4.000000E-01   4.000000E-01   4.000000E-01   4.000000E-01   4.000000E-01   4.000000E-01   4.000000E-01   4.000000E-01   4.000000E-01   4.000000E-01   4.000000E-01   4.000000E-01   4.000000E-01   4.000000E-01   4.000000E-01   4.000000E-01   4.000000E-01   4.000000E-01   4.000000E-01   4.000000E-01   4.000000E-01   4.000000E-01   4.000000E-01   4.000000E-01   4.000000E-01   4.000000E-01   4.000000E-01   4.000000E-01   4.000000E-01   4.000000E-01   4.000000E-01   4.000000E-01   4.000000E-01   4.000000E-01   4.000000E-01   4.000000E-01   4.000000E-01   4.000000E-01   4.000000E-01   4.000000E-01   4.000000E-01   4.000000E-01   4.000000E-01   4.000000E-01   4.000000E-01   4.000000E-01   4.000000E-01   4.000000E-01   4.000000E-01   4.000000E-01   4.000000E-01   4.000000E-01   4.000000E-01   4.000000E-01   4.000000E-01   4.000000E-01   4.000000E-01   4.000000E-01   4.000000E-01   4.000000E-01   4.000000E-01   4.000000E-01   4.000000E-01   4.000000E-01   4.000000E-01   4.000000E-01   4.000000E-01   4.000000E-01   4.000000E-01   4.000000E-01   4.000000E-01   4.000000E-01   4.000000E-01   4.000000E-01   4.000000E-01   4.000000E-01   4.000000E-01   4.000000E-01   4.000000E-01   4.000000E-01   4.000000E-01   4.000000E-01   4.000000E-01   4.000000E-01   4.000000E-01   4.000000E-01   4.000000E-01   4.000000E-01   4.000000E-01   4.000000E-01   4.000000E-01   4.000000E-01   4.000000E-01   4.000000E-01   4.000000E-01   4.000000E-01   4.000000E-01   4.000000E-01   4.000000E-01   4.000000E-01   4.000000E-01   4.000000E-01   4.000000E-01   4.000000E-01   4.000000E-01   4.000000E-01   4.000000E-01   4.000000E-01   4.000000E-01   4.000000E-01   4.000000E-01   4.000000E-01   4.000000E-01   4.000000E-01   4.000000E-01   4.000000E-01   4.000000E-01   4.000000E-01   4.000000E-01   4.000000E-01   4.000000E-01   4.000000E-01   4.000000E-01   4.000000E-01   4.000000E-01   4.000000E-01   4.000000E-01   4.000000E-01   4.000000E-01   4.000000E-01   4.000000E-01   4.000000E-01   4.000000E-01   4.000000E-01   4.000000E-01   4.000000E-01   4.000000E-01   4.000000E-01   4.000000E-01   4.000000E-01   4.000000E-01   4.000000E-01   4.000000E-01   4.000000E-01   4.000000E-01   4.000000E-01   4.000000E-01   4.000000E-01   4.000000E-01   4.000000E-01   4.000000E-01   4.000000E-01   4.000000E-01   4.000000E-01   4.000000E-01   4.000000E-01   4.000000E-01   4.000000E-01   4.000000E-01   4.000000E-01   4.000000E-01   4.000000E-01   4.000000E-01   4.000000E-01   4.000000E-01   4.000000E-01   4.000000E-01   4.000000E-01   4.000000E-01   4.000000E-01   4.000000E-01   4.000000E-01   4.000000E-01   4.000000E-01   4.000000E-01   4.000000E-01   4.000000E-01   4.000000E-01   4.000000E-01   4.000000E-01   4.000000E-01   4.000000E-01   4.000000E-01   4.000000E-01   4.000000E-01   4.000000E-01   4.000000E-01   4.000000E-01   4.000000E-01   4.000000E-01   4.000000E-01   4.000000E-01   4.000000E-01   4.000000E-01   4.000000E-01   4.000000E-01   4.000000E-01   4.000000E-01   4.000000E-01   4.000000E-01   4.000000E-01   4.000000E-01   4.000000E-01   4.000000E-01   4.000000E-01   4.000000E-01   4.000000E-01   4.000000E-01   4.000000E-01   4.000000E-01   4.000000E-01   4.000000E-01   4.000000E-01   4.000000E-01   4.000000E-01   4.000000E-01   4.000000E-01   4.000000E-01   4.000000E-01   4.000000E-01   4.000000E-01   4.000000E-01   4.000000E-01   4.000000E-01   4.000000E-01   4.000000E-01   4.000000E-01   4.000000E-01   4.000000E-01   4.000000E-01   4.000000E-01   4.000000E-01   4.000000E-01   4.000000E-01   4.000000E-01   4.000000E-01   4.000000E-01   4.000000E-01   4.000000E-01   4.000000E-01   4.000000E-01   4.000000E-01   4.000000E-01   4.000000E-01   4.000000E-01   4.000000E-01   4.000000E-01   4.000000E-01   4.000000E-01   4.000000E-01   4.000000E-01   4.000000E-01   4.000000E-01   4.000000E-01   4.000000E-01   4.000000E-01   4.000000E-01   4.000000E-01   4.000000E-01   4.000000E-01   4.000000E-01   4.000000E-01   4.000000E-01   4.000000E-01   4.000000E-01   4.000000E-01   4.000000E-01   4.000000E-01   4.000000E-01   4.000000E-01   4.000000E-01   4.000000E-01   4.000000E-01   4.000000E-01   4.000000E-01   4.000000E-01   4.000000E-01   4.000000E-01   4.000000E-01   4.000000E-01   4.000000E-01   4.000000E-01   4.000000E-01   4.000000E-01   4.000000E-01   4.000000E-01   4.000000E-01   4.000000E-01   4.000000E-01   4.000000E-01   4.000000E-01   4.000000E-01   4.000000E-01   4.000000E-01   4.000000E-01   4.000000E-01   4.000000E-01   4.000000E-01   4.000000E-01   4.000000E-01   4.000000E-01   4.000000E-01   4.000000E-01   4.000000E-01   4.000000E-01   4.000000E-01   4.000000E-01   4.000000E-01   4.000000E-01   4.000000E-01   4.000000E-01   4.000000E-01   4.000000E-01   4.000000E-01   4.000000E-01   4.000000E-01   4.000000E-01   4.000000E-01   4.000000E-01   4.000000E-01   4.000000E-01   4.000000E-01   4.000000E-01   4.000000E-01   4.000000E-01   4.000000E-01   4.000000E-01   4.000000E-01   4.000000E-01   4.000000E-01   4.000000E-01   4.000000E-01   4.000000E-01   4.000000E-01   4.000000E-01   4.000000E-01   4.000000E-01   4.000000E-01   4.000000E-01   4.000000E-01   4.000000E-01   4.000000E-01   4.000000E-01   4.000000E-01   4.000000E-01   4.000000E-01   4.000000E-01   4.000000E-01   4.000000E-01   4.000000E-01   4.000000E-01   4.000000E-01   4.000000E-01   4.000000E-01   4.000000E-01   4.000000E-01   4.000000E-01   4.000000E-01   4.000000E-01   4.000000E-01   4.000000E-01   4.000000E-01   4.000000E-01   4.000000E-01   4.000000E-01   4.000000E-01   4.000000E-01   4.000000E-01   4.000000E-01   4.000000E-01   4.000000E-01   4.000000E-01   4.000000E-01   4.000000E-01   4.000000E-01   4.000000E-01   4.000000E-01   4.000000E-01   4.000000E-01   4.000000E-01   4.000000E-01   4.000000E-01   4.000000E-01   4.000000E-01   4.000000E-01   4.000000E-01   4.000000E-01   4.000000E-01   4.000000E-01   4.000000E-01   4.000000E-01   4.000000E-01   4.000000E-01   4.000000E-01   4.000000E-01   4.000000E-01   4.000000E-01   4.000000E-01   4.000000E-01   4.000000E-01   4.000000E-01   4.000000E-01   4.000000E-01   4.000000E-01   4.000000E-01   4.000000E-01   4.000000E-01   4.000000E-01   4.000000E-01   4.000000E-01   4.000000E-01   4.000000E-01   4.000000E-01   4.000000E-01   4.000000E-01   4.000000E-01   4.000000E-01   4.000000E-01   4.000000E-01   4.000000E-01   4.000000E-01   4.000000E-01   4.000000E-01   4.000000E-01   4.000000E-01   4.000000E-01   4.000000E-01   4.000000E-01   4.000000E-01   4.000000E-01   4.000000E-01   4.000000E-01   4.000000E-01   4.000000E-01   4.000000E-01   4.000000E-01   4.000000E-01   4.000000E-01   4.000000E-01   4.000000E-01   4.000000E-01   4.000000E-01   4.000000E-01   4.000000E-01   4.000000E-01   4.000000E-01   4.000000E-01   4.000000E-01   4.000000E-01   4.000000E-01   4.000000E-01   4.000000E-01   4.000000E-01   4.000000E-01   4.000000E-01   4.000000E-01   4.000000E-01   4.000000E-01   4.000000E-01   4.000000E-01   4.000000E-01   4.000000E-01   4.000000E-01   4.000000E-01   4.000000E-01   4.000000E-01   4.000000E-01   4.000000E-01   4.000000E-01   4.000000E-01   4.000000E-01   4.000000E-01   4.000000E-01   4.000000E-01   4.000000E-01   4.000000E-01   4.000000E-01   4.000000E-01   4.000000E-01   4.000000E-01   4.000000E-01   4.000000E-01   4.000000E-01   4.000000E-01   4.000000E-01   4.000000E-01   4.000000E-01   4.000000E-01   4.000000E-01   4.000000E-01   4.000000E-01   4.000000E-01   4.000000E-01   4.000000E-01   4.000000E-01   4.000000E-01   4.000000E-01   4.000000E-01   4.000000E-01   4.000000E-01   4.000000E-01   4.000000E-01   4.000000E-01   4.000000E-01   4.000000E-01   4.000000E-01   4.000000E-01   4.000000E-01   4.000000E-01   4.000000E-01   4.000000E-01   4.000000E-01   4.000000E-01   4.000000E-01   4.000000E-01   4.000000E-01   4.000000E-01   4.000000E-01   4.000000E-01   4.000000E-01   4.000000E-01   4.000000E-01   4.000000E-01   4.000000E-01   4.000000E-01   4.000000E-01   4.000000E-01   4.000000E-01   4.000000E-01   4.000000E-01   4.000000E-01   4.000000E-01   4.000000E-01   4.000000E-01   4.000000E-01   4.000000E-01   4.000000E-01   4.000000E-01   4.000000E-01   4.000000E-01   4.000000E-01   4.000000E-01   4.000000E-01   4.000000E-01   4.000000E-01   4.000000E-01   4.000000E-01   4.000000E-01   4.000000E-01   4.000000E-01   4.000000E-01   4.000000E-01   4.000000E-01   4.000000E-01   4.000000E-01   4.000000E-01   4.000000E-01   4.000000E-01   4.000000E-01   4.000000E-01   4.000000E-01   4.000000E-01   4.000000E-01   4.000000E-01   4.000000E-01   4.000000E-01   4.000000E-01   4.000000E-01   4.000000E-01   4.000000E-01   4.000000E-01   4.000000E-01   4.000000E-01   4.000000E-01   4.000000E-01   4.000000E-01   4.000000E-01   4.000000E-01   4.000000E-01   4.000000E-01   4.000000E-01   4.000000E-01   4.000000E-01   4.000000E-01   4.000000E-01   4.000000E-01   4.000000E-01   4.000000E-01   4.000000E-01   4.000000E-01   4.000000E-01   4.000000E-01   4.000000E-01   4.000000E-01   4.000000E-01   4.000000E-01   4.000000E-01   4.000000E-01   4.000000E-01   4.000000E-01   4.000000E-01   4.000000E-01   4.000000E-01   4.000000E-01   4.000000E-01   4.000000E-01   4.000000E-01   4.000000E-01   4.000000E-01   4.000000E-01   4.000000E-01   4.000000E-01   4.000000E-01   4.000000E-01   4.000000E-01   4.000000E-01   4.000000E-01   4.000000E-01   4.000000E-01   4.000000E-01   4.000000E-01   4.000000E-01   4.000000E-01   4.000000E-01   4.000000E-01   4.000000E-01   4.000000E-01   4.000000E-01   4.000000E-01   4.000000E-01   4.000000E-01   4.000000E-01   4.000000E-01   4.000000E-01   4.000000E-01   4.000000E-01   4.000000E-01   4.000000E-01   4.000000E-01   4.000000E-01   4.000000E-01   4.000000E-01   4.000000E-01   4.000000E-01   4.000000E-01   4.000000E-01   4.000000E-01   4.000000E-01   4.000000E-01   4.000000E-01   4.000000E-01   4.000000E-01   4.000000E-01   4.000000E-01   4.000000E-01   4.000000E-01   4.000000E-01   4.000000E-01   4.000000E-01   4.000000E-01   4.000000E-01   4.000000E-01   4.000000E-01   4.000000E-01   4.000000E-01   4.000000E-01   4.000000E-01   4.000000E-01   4.000000E-01   4.000000E-01   4.000000E-01   4.000000E-01   4.000000E-01   4.000000E-01   4.000000E-01   4.000000E-01   4.000000E-01   4.000000E-01   4.000000E-01   4.000000E-01   4.000000E-01   4.000000E-01   4.000000E-01   4.000000E-01   4.000000E-01   4.000000E-01   4.000000E-01   4.000000E-01   4.000000E-01   4.000000E-01   4.000000E-01   4.000000E-01   4.000000E-01   4.000000E-01   4.000000E-01   4.000000E-01   4.000000E-01   4.000000E-01   4.000000E-01   4.000000E-01   4.000000E-01   4.000000E-01   4.000000E-01   4.000000E-01   4.000000E-01   4.000000E-01   4.000000E-01   4.000000E-01   4.000000E-01   4.000000E-01   4.000000E-01   4.000000E-01   4.000000E-01   4.000000E-01   4.000000E-01   4.000000E-01   4.000000E-01   4.000000E-01   4.000000E-01   4.000000E-01   4.000000E-01   4.000000E-01   4.000000E-01   4.000000E-01   4.000000E-01   4.000000E-01   4.000000E-01   4.000000E-01   4.000000E-01   4.000000E-01   4.000000E-01   4.000000E-01   4.000000E-01   4.000000E-01   4.000000E-01   4.000000E-01   4.000000E-01   4.000000E-01   4.000000E-01   4.000000E-01   4.000000E-01   4.000000E-01   4.000000E-01   4.000000E-01   4.000000E-01   4.000000E-01   4.000000E-01   4.000000E-01   4.000000E-01   4.000000E-01   4.000000E-01   4.000000E-01   4.000000E-01   4.000000E-01   4.000000E-01   4.000000E-01   4.000000E-01   4.000000E-01   4.000000E-01   4.000000E-01   4.000000E-01   4.000000E-01   4.000000E-01   4.000000E-01   4.000000E-01   4.000000E-01   4.000000E-01   4.000000E-01   4.000000E-01   4.000000E-01   4.000000E-01   4.000000E-01   4.000000E-01   4.000000E-01   4.000000E-01   4.000000E-01   4.000000E-01   4.000000E-01   4.000000E-01   4.000000E-01   4.000000E-01   4.000000E-01   4.000000E-01   4.000000E-01   4.000000E-01   4.000000E-01   4.000000E-01   