<?xml version="1.0"?>
<!-- Time =  7.9998362602810325E-01s -->
<VTKFile type="PolyData" version="0.1" byte_order="LittleEndian">
<PolyData>
<Piece NumberOfPoints="0000002400" NumberOfVerts="0" NumberOfLines="0" NumberOfStrips="0" NumberOfPolys="0">
<Points>
<DataArray type="Float32" Name="Position" NumberOfComponents="3" format="ascii">
  2.269640E-01   3.358655E-01   2.481323E-01   1.939520E+00   2.345233E-01   7.178590E-01   3.070999E+00   2.084226E-01   2.128962E-01   3.966686E+00   2.023578E-01   2.373359E-01   4.379270E+00   2.035279E-01   2.080461E-01   5.693293E+00   1.998835E-01   2.124688E-01   6.342186E+00   2.037728E-01   2.221417E-01   7.305199E+00   2.414464E+00   5.817205E-01   7.843623E+00   2.056242E+00   7.136156E-01   5.331774E+00   1.982423E+00   3.182600E-01   1.156988E+01   1.300481E+01   1.689865E+00   5.898956E+00   9.121813E-01   3.157600E-01   3.625500E+00   8.876807E-01   3.889039E+00   5.219474E+00   3.097935E+00   1.028532E+00   7.374002E+00   4.130682E+00   4.825079E-01   6.454308E+00   7.896057E-01   2.987982E+00   6.048862E+00   2.472029E+00   1.031848E+00   3.979837E+00   1.336405E+01   2.339860E+00   3.008541E+00   5.844911E-01   1.188086E+00   8.041121E+00   9.819062E-01   4.008447E+00   9.474298E+00   1.161247E+01   2.418967E+00   9.510098E+00   1.188111E+01   3.701871E-01   6.649045E+00   9.290269E+00   1.609987E+00   8.904733E+00   8.560913E-01   7.963786E-01   6.591869E+00   2.203546E+00   6.485984E-01   7.163999E+00   1.957350E+00   4.686396E-01   7.031076E+00   7.901363E-01   2.362541E-01   9.632541E+00   2.050548E-01   2.244678E-01   1.005548E+01   3.026823E-01   1.983229E-01   1.045004E+01   2.090538E-01   2.030182E-01   1.097731E+01   4.860450E-01   1.195215E+00   1.321028E+01   5.352566E-01   4.116823E-01   1.141230E+01   7.753674E-01   1.898229E+00   1.414660E+01   2.931814E-01   2.488610E-01   2.709907E-01   2.063110E-01   1.325101E+00   1.141167E+00   2.459140E-01   6.052973E-01   2.667564E+00   2.216121E-01   2.026658E-01   3.763216E+00   5.461378E-01   3.523345E-01   4.154427E+00   5.544912E-01   2.079596E-01   4.937838E+00   2.083201E-01   1.988247E-01   6.016834E+00   2.001692E-01   5.394375E-01   6.655033E+00   1.391306E+00   4.044773E-01   5.549370E+00   1.683271E+00   8.424855E-01   6.106964E+00   1.226568E+00   4.539957E-01   6.265397E+00   1.102521E+00   1.266332E+00   7.860149E+00   5.174244E+00   1.344831E+00   7.531396E+00   1.659346E+00   4.497679E-01   5.040885E+00   8.362668E-01   6.651399E-01   5.052669E+00   7.209874E-01   1.270536E+00   2.396874E+00   2.478731E-01   2.389747E+00   3.022405E+00   2.358011E-01   2.515316E+00   5.972873E+00   4.872671E-01   8.198610E-01   5.711490E+00   5.161613E+00   1.855476E+00   5.368482E+00   6.132941E+00   9.168162E-01   8.934044E+00   1.004525E+00   3.132606E+00   8.608974E+00   1.130116E+01   3.300058E+00   4.752507E+00   9.232089E-01   1.010484E+00   5.276348E+00   2.484816E+00   6.414384E-01   8.086887E+00   1.383802E+00   2.923398E-01   7.042921E+00   1.581044E+00   2.664699E-01   8.484895E+00   2.127639E-01   2.016432E-01   9.364505E+00   4.498460E-01   5.705153E-01   9.965301E+00   7.012334E-01   8.657371E-01   1.084084E+01   6.359290E-01   3.666410E-01   1.316475E+01   2.083038E-01   7.054249E-01   1.344521E+01   6.133901E-01   8.954566E-01   1.335902E+01   9.291110E-01   4.083736E-01   1.366621E+01   4.676619E-01   3.272807E-01   6.433126E-01   1.996867E-01   2.936337E-01   1.166201E+00   1.989457E-01   2.090598E-01   1.836635E+00   2.083989E-01   2.609976E-01   4.744373E+00   4.201989E-01   1.181024E+00   5.034768E+00   6.724489E-01   1.963357E-01   4.659292E+00   5.088663E-01   2.147591E-01   5.315639E+00   3.745781E-01   2.428189E-01   6.588204E+00   3.289819E-01   6.800095E-01   6.030761E+00   4.655106E-01   1.994376E-01   6.060617E+00   1.947335E+00   8.119811E-01   4.674104E+00   1.106044E+00   4.554415E-01   7.907328E+00   2.647868E+00   2.552795E-01   4.439733E+00   9.837383E-01   1.549683E+00   9.094947E-01   1.226680E+00   2.901971E+00   1.310840E+00   5.525506E+00   3.005496E+00   5.861568E+00   8.011051E+00   1.051233E+00   7.944040E+00   9.318632E+00   5.758218E-01   2.726932E+00   8.231453E-01   1.388283E+00   1.712444E+00   9.059715E+00   4.207784E+00   5.374368E+00   9.066898E+00   4.127702E+00   1.173682E+01   1.018481E+01   3.567511E+00   8.178551E+00   3.945827E+00   5.437363E-01   2.945938E+00   1.530661E+00   2.329252E+00   6.214927E+00   2.975217E+00   9.026210E-01   9.230507E+00   1.268101E+01   3.367059E+00   6.911065E+00   4.116129E+00   1.397577E+00   7.847070E+00   2.851156E+00   1.500398E+00   8.062304E+00   3.967604E-01   1.984081E-01   9.117185E+00   2.642184E-01   2.321680E-01   9.762027E+00   5.839978E-01   2.959669E-01   9.398169E+00   5.647195E-01   1.035306E+00   1.036285E+01   5.701083E-01   7.242349E-01   9.663866E+00   3.015322E-01   4.791058E+00   1.238568E+01   5.780785E-01   4.281922E-01   1.366899E+01   5.730186E-01   2.244445E+00   1.111413E+00   2.015996E-01   1.070797E+00   3.274282E+00   2.204279E-01   5.801449E-01   3.724070E+00   2.086419E-01   5.916851E-01   4.247702E+00   2.064450E-01   5.886839E-01   4.640176E+00   2.002607E-01   5.126903E-01   5.323070E+00   1.995545E-01   6.146434E-01   6.603703E+00   1.608520E+00   9.522296E-01   6.160236E+00   7.092354E+00   7.705258E-01   5.105332E+00   1.100556E+00   2.976148E-01   1.942331E+00   8.225702E+00   9.139603E-01   4.381613E+00   7.545781E+00   2.391887E+00   9.288325E+00   1.541360E+01   3.377088E+00   6.572824E+00   2.096412E+00   2.952409E+00   1.095547E+01   1.864906E-01   1.494299E+00   1.545787E+00   5.547376E+00   2.378109E+00   4.657398E+00   1.298046E+00   2.256797E+00   5.607017E+00   9.068185E-01   4.656181E+00   8.895475E+00   1.878037E+01   2.100112E+00   3.186090E-01   8.672900E-01   3.664052E+00   3.673543E+00   1.626664E+01   2.587996E+00   1.216515E+00   4.531130E-01   2.372863E+00   7.862715E+00   7.559730E-01   4.813363E+00   3.985524E+00   5.401222E-01   2.664930E+00   7.605527E+00   2.230768E+01   1.972904E+00   3.311359E+00   5.281644E+00   2.098878E+00   6.445578E+00   2.627179E+00   3.273684E-01   6.847427E+00   1.027381E+00   8.020319E-01   8.059795E+00   2.474051E-01   5.932299E-01   9.006932E+00   2.468621E-01   1.242082E+00   9.783124E+00   2.147575E-01   1.500701E+00   1.065805E+01   1.950942E-01   6.122624E-01   1.104554E+01   2.014233E-01   4.679004E-01   1.283569E+01   3.391080E-01   8.893485E-01   1.476394E+01   2.540727E-01   7.008261E-01   6.718016E-01   2.364036E-01   1.193983E+00   1.754146E+00   1.998704E-01   1.869912E+00   3.137341E+00   9.614179E-01   1.959994E-01   4.264336E+00   5.234052E-01   9.981097E-01   5.374880E+00   5.999710E-01   6.605371E-01   5.019302E+00   4.416370E-01   5.164230E-01   6.249465E+00   1.983428E-01   8.619177E-01   6.973460E+00   3.662245E+00   9.637980E-01   5.097884E+00   1.256481E+00   8.992009E-01   2.870541E+00   7.578403E+00   2.930727E+00   9.453127E+00   1.268754E+01   1.694808E+00   1.066687E+01   1.903857E+01   3.524897E+00   1.032287E+01   1.221456E+00   4.340950E+00   1.457623E+01   1.174457E+00   2.084070E+00   4.017438E+00   8.685343E-01   9.962572E-01   5.689640E+00   1.998200E-01   7.771974E-01   6.417328E+00   1.754893E+00   2.199438E-01   1.403157E+01   4.619385E-01   1.016981E+00   5.009363E+00   9.759953E-01   4.404784E+00   1.412221E+01   1.369501E+00   3.803225E+00   4.658234E-01   1.093368E+01   2.926078E+00   1.221972E+01   2.112454E-01   3.451415E-01   2.273035E+00   5.060549E-01   1.079960E+00   4.771902E+00   6.395678E+00   1.053259E+00   7.521419E+00   8.307253E+00   1.233835E+00   6.891947E+00   2.291241E+00   9.138909E-01   7.265606E+00   1.158638E+00   5.910672E-01   8.950069E+00   2.001839E-01   5.961530E-01   9.256867E+00   2.113954E-01   9.167219E-01   1.020881E+01   2.004161E-01   5.811484E-01   1.157916E+01   8.261114E-01   2.150504E-01   1.275268E+01   2.244241E-01   3.616229E-01   1.386941E+01   2.440191E-01   6.299071E-01   1.479421E+01   2.001399E-01   2.014502E-01   2.757700E+00   2.219186E-01   1.071223E+00   4.423365E+00   1.036897E+00   2.632394E+00   3.522890E+00   2.065374E-01   1.978806E-01   4.428911E+00   5.714028E-01   5.345935E-01   5.199735E+00   4.693736E-01   9.968224E-01   6.577734E+00   7.951083E-01   1.230551E+00   5.750101E+00   4.954206E-01   4.884146E-01   5.480641E+00   3.094131E+00   1.403577E+00   7.081728E+00   4.280447E+00   8.640311E-01   1.151068E+00   6.848867E+00   8.220552E-01   1.460015E+01   3.964078E-01   1.794287E+00   8.332605E+00   2.427501E+00   3.642566E+00   5.499382E+00   7.434991E-01   2.470868E-01   1.236669E+01   9.360907E+00   1.584041E+00   6.196371E+00   1.279030E+00   1.712505E+00   3.608157E+00   8.001149E-01   4.325499E+00   6.006493E+00   3.391058E+00   1.708987E+00   6.105665E+00   8.977032E-01   7.631146E-01   1.145702E+01   2.118667E+01   1.443488E+00   1.212633E+01   7.931452E-01   1.748133E+00   1.251544E+01   2.573014E-01   1.142554E+00   6.456761E+00   4.692784E+00   2.486833E+00   1.225177E+01   1.060286E+00   3.512353E-01   9.026917E+00   8.141823E-01   4.087164E-01   4.811525E+00   1.779753E+00   1.084860E+00   8.542239E+00   8.456998E+00   1.208869E+00   8.784872E+00   3.301426E+00   9.286672E-01   7.715309E+00   3.277195E-01   4.004989E-01   8.830400E+00   4.745915E-01   8.979123E-01   9.042491E+00   6.671137E-01   1.273930E+00   9.834309E+00   3.180288E-01   1.043042E+00   7.329287E+00   2.224929E+00   1.070023E+00   1.181587E+01   3.414167E-01   3.891806E-01   1.420446E+01   2.836372E-01   1.366675E+00   6.981021E-01   3.178806E-01   1.615006E+00   2.395840E+00   2.173302E-01   6.273067E-01   3.655635E+00   2.028789E-01   1.156284E+00   4.493951E+00   1.984915E-01   9.214556E-01   5.893236E+00   2.026770E-01   1.121208E+00   6.438175E+00   2.618002E+00   1.155545E+00   6.493546E+00   4.692705E+00   1.733516E+00   6.253162E+00   3.691740E+00   1.013951E+00   1.972024E+00   4.942461E+00   2.057346E+00   1.232903E+00   1.718088E+01  
[...]
<PointData Scalars="Diameter" Vectors="Velocity">
<DataArray type="Float32" Name="Diameter" format="ascii">
  4.000000E-01   4.000000E-01   4.000000E-01   4.000000E-01   4.000000E-01   4.000000E-01   4.000000E-01   4.000000E-01   4.000000E-01   4.000000E-01   4.000000E-01   4.000000E-01   4.000000E-01   4.000000E-01   4.000000E-01   4.000000E-01   4.000000E-01   4.000000E-01   4.000000E-01   4.000000E-01   4.000000E-01   4.000000E-01   4.000000E-01   4.000000E-01   4.000000E-01   4.000000E-01   4.000000E-01   4.000000E-01   4.000000E-01   4.000000E-01   4.000000E-01   4.000000E-01   4.000000E-01   4.000000E-01   4.000000E-01   4.000000E-01   4.000000E-01   4.000000E-01   4.000000E-01   4.000000E-01   4.000000E-01   4.000000E-01   4.000000E-01   4.000000E-01   4.000000E-01   4.000000E-01   4.000000E-01   4.000000E-01   4.000000E-01   4.000000E-01   4.000000E-01   4.000000E-01   4.000000E-01   4.000000E-01   4.000000E-01   4.000000E-01   4.000000E-01   4.000000E-01   4.000000E-01   4.000000E-01   4.000000E-01   4.000000E-01   4.000000E-01   4.000000E-01   4.000000E-01   4.000000E-01   4.000000E-01   4.000000E-01   4.000000E-01   4.000000E-01   4.000000E-01   4.000000E-01   4.000000E-01   4.000000E-01   4.000000E-01   4.000000E-01   4.000000E-01   4.000000E-01   4.000000E-01   4.000000E-01   4.000000E-01   4.000000E-01   4.000000E-01   4.000000E-01   4.000000E-01   4.000000E-01   4.000000E-01   4.000000E-01   4.000000E-01   4.000000E-01   4.000000E-01   4.000000E-01   4.000000E-01   4.000000E-01   4.000000E-01   4.000000E-01   4.000000E-01   4.000000E-01   4.000000E-01   4.000000E-01   4.000000E-01   4.000000E-01   4.000000E-01   4.000000E-01   4.000000E-01   4.000000E-01   4.000000E-01   4.000000E-01   4.000000E-01   4.000000E-01   4.000000E-01   4.000000E-01   4.000000E-01   4.000000E-01   4.000000E-01   4.000000E-01   4.000000E-01   4.000000E-01   4.000000E-01   4.000000E-01   4.000000E-01   4.000000E-01   4.000000E-01   4.000000E-01   4.000000E-01   4.000000E-01   4.000000E-01   4.000000E-01   4.000000E-01   4.000000E-01   4.000000E-01   4.000000E-01   4.000000E-01   4.000000E-01   4.000000E-01   4.000000E-01   4.000000E-01   4.000000E-01   4.000000E-01   4.000000E-01   4.000000E-01   4.000000E-01   4.000000E-01   4.000000E-01   4.000000E-01   4.000000E-01   4.000000E-01   4.000000E-01   4.000000E-01   4.000000E-01   4.000000E-01   4.000000E-01   4.000000E-01   4.000000E-01   4.000000E-01   4.000000E-01   4.000000E-01   4.000000E-01   4.000000E-01   4.000000E-01   4.000000E-01   4.000000E-01   4.000000E-01   4.000000E-01   4.000000E-01   4.000000E-01   4.000000E-01   4.000000E-01   4.000000E-01   4.000000E-01   4.000000E-01   4.000000E-01   4.000000E-01   4.000000E-01   4.000000E-01   4.000000E-01   4.000000E-01   4.000000E-01   4.000000E-01   4.000000E-01   4.000000E-01   4.000000E-01   4.000000E-01   4.000000E-01   4.000000E-01   4.000000E-01   4.000000E-01   4.000000E-01   4.000000E-01   4.000000E-01   4.000000E-01   4.000000E-01   4.000000E-01   4.000000E-01   4.000000E-01   4.000000E-01   4.000000E-01   4.000000E-01   4.000000E-01   4.000000E-01   4.000000E-01   4.000000E-01   4.000000E-01   4.000000E-01   4.000000E-01   4.000000E-01   4.000000E-01   4.000000E-01   4.000000E-01   4.000000E-01   4.000000E-01   4.000000E-01   4.000000E-01   4.000000E-01   4.000000E-01   4.000000E-01   4.000000E-01   4.000000E-01   4.000000E-01   4.000000E-01   4.000000E-01   4.000000E-01   4.000000E-01   4.000000E-01   4.000000E-01   4.000000E-01   4.000000E-01   4.000000E-01   4.000000E-01   4.000000E-01   4.000000E-01   4.000000E-01   4.000000E-01   4.000000E-01   4.000000E-01   4.000000E-01   4.000000E-01   4.000000E-01   4.000000E-01   4.000000E-01   4.000000E-01   4.000000E-01   4.000000E-01   4.000000E-01   4.000000E-01   4.000000E-01   4.000000E-01   4.000000E-01   4.000000E-01   4.000000E-01   4.000000E-01   4.000000E-01   4.000000E-01   4.000000E-01   4.000000E-01   4.000000E-01   4.000000E-01   4.000000E-01   4.000000E-01   4.000000E-01   4.000000E-01   4.000000E-01   4.000000E-01   4.000000E-01   4.000000E-01   4.000000E-01   4.000000E-01   4.000000E-01   4.000000E-01   4.000000E-01   4.000000E-01   4.000000E-01   4.000000E-01   4.000000E-01   4.000000E-01   4.000000E-01   4.000000E-01   4.000000E-01   4.000000E-01   4.000000E-01   4.000000E-01   4.000000E-01   4.000000E-01   4.000000E-01   4.000000E-01   4.000000E-01   4.000000E-01   4.000000E-01   4.000000E-01   4.000000E-01   4.000000E-01   4.000000E-01   4.000000E-01   4.000000E-01   4.000000E-01   4.000000E-01   4.000000E-01   4.000000E-01   4.000000E-01   4.000000E-01   4.000000E-01   4.000000E-01   4.000000E-01   4.000000E-01   4.000000E-01   4.000000E-01   4.000000E-01   4.000000E-01   4.000000E-01   4.000000E-01   4.000000E-01   4.000000E-01   4.000000E-01   4.000000E-01   4.000000E-01   4.000000E-01   4.000000E-01   4.000000E-01   4.000000E-01   4.000000E-01   4.000000E-01   4.000000E-01   4.000000E-01   4.000000E-01   4.000000E-01   4.000000E-01   4.000000E-01   4.000000E-01   4.000000E-01   4.000000E-01   4.000000E-01   4.000000E-01   4.000000E-01   4.000000E-01   4.000000E-01   4.000000E-01   4.000000E-01   4.000000E-01   4.000000E-01   4.000000E-01   4.000000E-01   4.000000E-01   4.000000E-01   4.000000E-01   4.000000E-01   4.000000E-01   4.000000E-01   4.000000E-01   4.000000E-01   4.000000E-01   4.000000E-01   4.000000E-01   4.000000E-01   4.000000E-01   4.000000E-01   4.000000E-01   4.000000E-01   4.000000E-01   4.000000E-01   4.000000E-01   4.000000E-01   4.000000E-01   4.000000E-01   4.000000E-01   4.000000E-01   4.000000E-01   4.000000E-01   4.000000E-01   4.000000E-01   4.000000E-01   4.000000E-01   4.000000E-01   4.000000E-01   4.000000E-01   4.000000E-01   4.000000E-01   4.000000E-01   4.000000E-01   4.000000E-01   4.000000E-01   4.000000E-01   4.000000E-01   4.000000E-01   4.000000E-01   4.000000E-01   4.000000E-01   4.000000E-01   4.000000E-01   4.000000E-01   4.000000E-01   4.000000E-01   4.000000E-01   4.000000E-01   4.000000E-01   4.000000E-01   4.000000E-01   4.000000E-01   4.000000E-01   4.000000E-01   4.000000E-01   4.000000E-01   4.000000E-01   4.000000E-01   4.000000E-01   4.000000E-01   4.000000E-01   4.000000E-01   4.000000E-01   4.000000E-01   4.000000E-01   4.000000E-01   4.000000E-01   4.000000E-01   4.000000E-01   4.000000E-01   4.000000E-01   4.000000E-01   4.000000E-01   4.000000E-01   4.000000E-01   4.000000E-01   4.000000E-01   4.000000E-01   4.000000E-01   4.000000E-01   4.000000E-01   4.000000E-01   4.000000E-01   4.000000E-01   4.000000E-01   4.000000E-01   4.000000E-01   4.000000E-01   4.000000E-01   4.000000E-01   4.000000E-01   4.000000E-01   4.000000E-01   4.000000E-01   4.000000E-01   4.000000E-01   4.000000E-01   4.000000E-01   4.000000E-01   4.000000E-01   4.000000E-01   4.000000E-01   4.000000E-01   4.000000E-01   4.000000E-01   4.000000E-01   4.000000E-01   4.000000E-01   4.000000E-01   4.000000E-01   4.000000E-01   4.000000E-01   4.000000E-01   4.000000E-01   4.000000E-01   4.000000E-01   4.000000E-01   4.000000E-01   4.000000E-01   4.000000E-01   4.000000E-01   4.000000E-01   4.000000E-01   4.000000E-01   4.000000E-01   4.000000E-01   4.000000E-01   4.000000E-01   4.000000E-01   4.000000E-01   4.000000E-01   4.000000E-01   4.000000E-01   4.000000E-01   4.000000E-01   4.000000E-01   4.000000E-01   4.000000E-01   4.000000E-01   4.000000E-01   4.000000E-01   4.000000E-01   4.000000E-01   4.000000E-01   4.000000E-01   4.000000E-01   4.000000E-01   4.000000E-01   4.000000E-01   4.000000E-01   4.000000E-01   4.000000E-01   4.000000E-01   4.000000E-01   4.000000E-01   4.000000E-01   4.000000E-01   4.000000E-01   4.000000E-01   4.000000E-01   4.000000E-01   4.000000E-01   4.000000E-01   4.000000E-01   4.000000E-01   4.000000E-01   4.000000E-01   4.000000E-01   4.000000E-01   4.000000E-01   4.000000E-01   4.000000E-01   4.000000E-01   4.000000E-01   4.000000E-01   4.000000E-01   4.000000E-01   4.000000E-01   4.000000E-01   4.000000E-01   4.000000E-01   4.000000E-01   4.000000E-01   4.000000E-01   4.000000E-01   4.000000E-01   4.000000E-01   4.000000E-01   4.000000E-01   4.000000E-01   4.000000E-01   4.000000E-01   4.000000E-01   4.000000E-01   4.000000E-01   4.000000E-01   4.000000E-01   4.000000E-01   4.000000E-01   4.000000E-01   4.000000E-01   4.000000E-01   4.000000E-01   4.000000E-01   4.000000E-01   4.000000E-01   4.000000E-01   4.000000E-01   4.000000E-01   4.000000E-01   4.000000E-01   4.000000E-01   4.000000E-01   4.000000E-01   4.000000E-01   4.000000E-01   4.000000E-01   4.000000E-01   4.000000E-01   4.000000E-01   4.000000E-01   4.000000E-01   4.000000E-01   4.000000E-01   4.000000E-01   4.000000E-01   4.000000E-01   4.000000E-01   4.000000E-01   4.000000E-01   4.000000E-01   4.000000E-01   4.000000E-01   4.000000E-01   4.000000E-01   4.000000E-01   4.000000E-01   4.000000E-01   4.000000E-01   4.000000E-01   4.000000E-01   4.000000E-01   4.000000E-01   4.000000E-01   4.000000E-01   4.000000E-01   4.000000E-01   4.000000E-01   4.000000E-01   4.000000E-01   4.000000E-01   4.000000E-01   4.000000E-01   4.000000E-01   4.000000E-01   4.000000E-01   4.000000E-01   4.000000E-01   4.000000E-01   4.000000E-01   4.000000E-01   4.000000E-01   4.000000E-01   4.000000E-01   4.000000E-01   4.000000E-01   4.000000E-01   4.000000E-01   4.000000E-01   4.000000E-01   4.000000E-01   4.000000E-01   4.000000E-01   4.000000E-01   4.000000E-01   4.000000E-01   4.000000E-01   4.000000E-01   4.000000E-01   4.000000E-01   4.000000E-01   4.000000E-01   4.000000E-01   4.000000E-01   4.000000E-01   4.000000E-01   4.000000E-01   4.000000E-01   4.000000E-01   4.000000E-01   4.000000E-01   4.000000E-01   4.000000E-01   4.000000E-01   4.000000E-01   4.000000E-01   4.000000E-01   4.000000E-01   4.000000E-01   4.000000E-01   4.000000E-01   4.000000E-01   4.000000E-01   4.000000E-01   4.000000E-01   4.000000E-01   4.000000E-01   4.000000E-01   4.000000E-01   4.000000E-01   4.000000E-01   4.000000E-01   4.000000E-01   4.000000E-01   4.000000E-01   4.000000E-01   4.000000E-01   4.000000E-01   4.000000E-01   4.000000E-01   4.000000E-01   4.000000E-01   4.000000E-01   4.000000E-01   4.000000E-01   4.000000E-01   4.000000E-01   4.000000E-01   4.000000E-01   4.000000E-01   4.000000E-01   4.000000E-01   4.000000E-01   4.000000E-01   4.000000E-01   4.000000E-01   4.000000E-01   4.000000E-01   4.000000E-01   4.000000E-01   4.000000E-01   4.000000E-01   4.000000E-01   4.000000E-01   4.000000E-01   4.000000E-01   4.000000E-01   4.000000E-01   4.000000E-01   4.000000E-01   4.000000E-01   4.000000E-01   4.000000E-01   4.000000E-01   4.000000E-01   4.000000E-01   4.000000E-01   4.000000E-01   4.000000E-01   4.000000E-01   4.000000E-01   4.000000E-01   4.000000E-01   4.000000E-01   4.000000E-01   4.000000E-01   4.000000E-01   4.000000E-01   4.000000E-01   4.000000E-01   4.000000E-01   4.000000E-01   4.000000E-01   4.000000E-01   4.000000E-01   4.000000E-01   4.000000E-01   4.000000E-01   4.000000E-01   4.000000E-01   4.000000E-01   4.000000E-01   4.000000E-01   4.000000E-01   4.000000E-01   4.000000E-01   4.000000E-01   4.000000E-01   4.000000E-01   4.000000E-01   4.000000E-01   4.000000E-01   4.000000E-01   4.000000E-01   4.000000E-01   4.000000E-01   4.000000E-01   4.000000E-01   4.000000E-01   4.000000E-01   4.000000E-01   4.000000E-01   4.000000E-01   4.000000E-01   4.000000E-01   4.000000E-01   4.000000E-01   4.000000E-01   4.000000E-01   4.000000E-01   4.000000E-01   4.000000E-01   4.000000E-01   4.000000E-01   4.000000E-01   4.000000E-01   4.000000E-01   4.000000E-01   4.000000E-01   4.000000E-01   4.000000E-01   4.000000E-01   4.000000E-01   4.000000E-01   4.000000E-01   4.000000E-01   4.000000E-01   4.000000E-01   4.000000E-01   4.000000E-01   4.000000E-01   4.000000E-01   4.000000E-01   4.000000E-01   4.000000E-01   4.000000E-01   4.000000E-01   4.000000E-01   4.000000E-01   4.000000E-01   4.000000E-01   4.000000E-01   4.000000E-01   4.000000E-01   4.000000E-01   4.000000E-01   4.000000E-01   4.000000E-01   4.000000E-01   4.000000E-01   4.000000E-01   4.000000E-01   4.000000E-01   4.000000E-01   4.000000E-01   4.000000E-01   4.000000E-01   4.000000E-01   4.000000E-01   4.000000E-01   4.000000E-01   4.000000E-01   4.000000E-01   4.000000E-01   4.000000E-01   4.000000E-01   4.000000E-01   4.000000E-01   4.000000E-01   4.000000E-01   4.000000E-01   4.000000E-01   4.000000E-01   4.000000E-01   4.000000E-01   4.000000E-01   4.000000E-01   4.000000E-01   4.000000E-01   4.000000E-01   4.000000E-01   4.000000E-01   4.000000E-01   4.000000E-01   4.000000E-01   4.000000E-01   4.000000E-01   4.000000E-01   4.000000E-01   4.000000E-01   4.000000E-01   4.000000E-01   4.000000E-01   4.000000E-01   4.000000E-01   4.000000E-01   4.000000E-01   4.000000E-01   4.000000E-01   4.000000E-01   4.000000E-01   4.000000E-01   4.000000E-01   4.000000E-01   4.000000E-01   4.000000E-01   4.000000E-01   4.000000E-01   4.000000E-01   4.000000E-01   4.000000E-01   4.000000E-01   4.000000E-01   4.000000E-01   4.000000E-01   4.000000E-01   4.000000E-01   4.000000E-01   4.000000E-01   4.000000E-01   4.000000E-01   4.000000E-01   4.000000E-01   4.000000E-01   4.000000E-01   4.000000E-01   4.000000E-01   4.000000E-01   4.000000E-01   4.000000E-01   4.000000E-01   4.000000E-01   4.000000E-01   4.000000E-01   4.000000E-01   4.000000E-01   4.000000E-01   4.000000E-01   4.000000E-01   4.000000E-01   4.000000E-01   4.000000E-01   4.000000E-01   4.000000E-01   4.000000E-01   4.000000E-01   4.000000E-01   4.000000E-01   4.000000E-01   4.000000E-01   4.000000E-01   4.000000E-01   4.000000E-01   4.000000E-01   4.000000E-01   4.000000E-01   4.000000E-01   4.000000E-01   4.000000E-01   4.000000E-01   4.000000E-01   4.000000E-01   4.000000E-01   4.000000E-01   4.000000E-01   4.000000E-01   4.000000E-01   4.000000E-01   4.000000E-01   4.000000E-01   4.000000E-01   4.000000E-01   4.000000E-01   4.000000E-01   4.000000E-01   4.000000E-01   4.000000E-01   4.000000E-01   4.000000E-01   4.000000E-01   4.000000E-01   4.000000E-01   4.000000E-01   4.000000E-01   4.000000E-01   4.000000E-01   4.000000E-01   4.000000E-01   4.000000E-01   4.000000E-01   4.000000E-01   4.000000E-01   4.000000E-01   4.000000E-01   4.000000E-01   4.000000E-01   4.000000E-01   4.000000E-01   4.000000E-01   4.000000E-01   4.000000E-01   4.000000E-01   4.000000E-01   4.000000E-01   4.000000E-01   4.000000E-01   4.000000E-01   4.000000E-01   4.000000E-01   4.000000E-01   4.000000E-01   4.000000E-01   4.000000E-01   4.000000E-01   4.000000E-01   4.000000E-01   4.000000E-01   4.000000E-01   4.000000E-01   4.000000E-01   4.000000E-01   4.000000E-01   4.000000E-01   4.000000E-01   4.000000E-01   4.000000E-01   4.000000E-01   4.000000E-01   4.000000E-01   4.000000E-01   4.000000E-01   4.000000E-01   4.000000E-01   4.000000E-01   4.000000E-01   4.000000E-01   4.000000E-01   4.000000E-01   4.000000E-01   4.000000E-01   4.000000E-01   4.000000E-01   4.000000E-01   4.000000E-01   4.000000E-01   4.000000E-01   4.000000E-01   4.000000E-01   4.000000E-01   4.000000E-01   4.000000E-01   4.000000E-01   4.000000E-01   4.000000E-01   4.000000E-01   4.000000E-01   4.000000E-01   4.000000E-01   4.000000E-01   4.000000E-01   4.000000E-01   4.000000E-01   4.000000E-01   4.000000E-01   4.000000E-01   4.000000E-01   4.000000E-01   4.000000E-01   4.000000E-01   4.000000E-01   4.000000E-01   4.000000E-01   4.000000E-01   4.000000E-01   4.000000E-01   4.000000E-01   4.000000E-01   4.000000E-01   4.000000E-01   4.000000E-01   4.000000E-01   4.000000E-01   4.000000E-01   4.000000E-01   4.000000E-01   4.000000E-01   4.000000E-01   4.000000E-01   4.000000E-01   4.000000E-01   4.000000E-01   4.000000E-01   4.000000E-01   4.000000E-01   4.000000E-01   4.000000E-01   4.000000E-01   4.000000E-01   4.000000E-01   4.000000E-01   4.000000E-01   4.000000E-01   4.000000E-01   4.000000E-01   4.000000E-01   4.000000E-01   4.000000E-01   4.000000E-01   4.000000E-01   4.000000E-01   4.000000E-01   4.000000E-01   4.000000E-01   4.000000E-01   4.000000E-01   4.000000E-01   4.000000E-01   4.000000E-01   4.000000E-01   4.000000E-01   4.000000E-01   4.000000E-01   4.000000E-01   4.000000E-01   4.000000E-01   4.000000E-01   4.000000E-01   4.000000E-01   4.000000E-01   4.000000E-01   4.000000E-01   4.000000E-01   4.000000E-01   4.000000E-01   4.000000E-01   4.000000E-01   4.000000E-01   4.000000E-01   4.000000E-01   4.000000E-01   4.000000E-01   4.000000E-01   4.000000E-01   4.000000E-01   4.000000E-01   4.000000E-01   4.000000E-01   4.000000E-01   4.000000E-01   4.000000E-01   4.000000E-01   4.000000E-01   4.000000E-01   4.000000E-01   4.000000E-01   4.000000E-01   4.000000E-01   4.000000E-01   4.000000E-01   4.000000E-01   4.000000E-01   4.000000E-01   4.000000E-01   4.000000E-01   4.000000E-01   4.000000E-01   4.000000E-01   4.000000E-01   4.000000E-01   4.000000E-01   4.000000E-01   4.000000E-01   4.000000E-01   4.000000E-01   4.000000E-01   4.000000E-01   4.000000E-01   4.000000E-01   4.000000E-01   4.000000E-01   4.000000E-01   4.000000E-01   4.000000E-01   4.000000E-01   4.000000E-01   4.000000E-01   4.000000E-01   4.000000E-01   4.000000E-01   4.000000E-01   4.000000E-01   4.000000E-01   4.000000E-01   4.000000E-01   4.000000E-01   4.000000E-01   4.000000E-01   4.000000E-01   4.000000E-01   4.000000E-01   4.000000E-01   4.000000E-01   4.000000E-01   4.000000E-01   4.000000E-01   4.000000E-01   4.000000E-01   4.000000E-01   4.000000E-01   4.000000E-01   4.000000E-01   4.000000E-01   4.000000E-01   4.000000E-01   4.000000E-01   4.000000E-01   4.000000E-01   4.000000E-01   4.000000E-01   4.000000E-01   4.000000E-01   4.000000E-01   4.000000E-01   4.000000E-01   4.000000E-01   4.000000E-01   4.000000E-01   4.000000E-01   4.000000E-01   4.000000E-01   4.000000E-01   4.000000E-01   4.000000E-01   4.000000E-01   4.000000E-01   4.000000E-01   4.000000E-01   4.000000E-01   4.000000E-01   4.000000E-01   4.000000E-01   4.000000E-01   4.000000E-01   4.000000E-01   4.000000E-01   4.000000E-01   4.000000E-01   4.000000E-01   4.000000E-01   4.000000E-01   4.000000E-01   4.000000E-01   4.000000E-01   4.000000E-01   4.000000E-01   4.000000E-01   4.000000E-01   4.000000E-01   4.000000E-01   4.000000E-01   4.000000E-01   4.000000E-01   4.000000E-01   4.000000E-01   4.000000E-01   4.000000E-01   4.000000E-01   4.000000E-01   4.000000E-01   4.000000E-01   4.000000E-01   4.000000E-01   4.000000E-01   4.000000E-01   4.000000E-01   4.000000E-01   4.000000E-01   4.000000E-01   4.000000E-01   4.000000E-01   4.000000E-01   4.000000E-01   4.000000E-01   4.000000E-01   4.000000E-01   4.000000E-01   4.000000E-01   4.000000E-01   4.000000E-01   4.000000E-01   4.000000E-01   4.000000E-01   4.000000E-01   4.000000E-01   4.000000E-01   4.000000E-01   4.000000E-01   4.000000E-01   4.000000E-01   4.000000E-01   4.000000E-01   4.000000E-01   4.000000E-01   4.000000E-01   4.000000E-01   4.000000E-01   4.000000E-01   4.000000E-01   4.000000E-01   4.000000E-01   4.000000E-01   4.000000E-01   4.000000E-01   4.000000E-01   4.000000E-01   4.000000E-01   4.000000E-01   4.000000E-01   4.000000E-01   4.000000E-01   4.000000E-01   4.000000E-01   4.000000E-01   4.000000E-01   4.000000E-01   4.000000E-01   4.000000E-01   4.000000E-01   4.000000E-01   4.000000E-01   4.000000E-01   4.000000E-01   4.000000E-01   4.000000E-01   4.000000E-01   4.000000E-01   4.000000E-01   4.000000E-01   4.000000E-01   4.000000E-01   4.000000E-01   4.000000E-01   4.000000E-01   4.000000E-01   4.000000E-01   4.000000E-01   4.000000E-01   4.000000E-01   4.000000E-01   4.000000E-01   4.000000E-01   4.000000E-01   4.000000E-01   4.000000E-01   4.000000E-01   4.000000E-01   4.000000E-01   4.000000E-01   4.000000E-01   4.000000E-01   4.000000E-01   4.000000E-01   4.000000E-01   4.000000E-01   4.000000E-01   4.000000E-01   4.000000E-01   4.000000E-01   4.000000E-01   4.000000E-01   4.000000E-01   4.000000E-01   4.000000E-01   4.000000E-01   4.000000E-01   4.000000E-01   4.000000E-01   4.000000E-01   4.000000E-01   4.000000E-01   4.000000E-01   