<?xml version="1.0"?>
<!-- Time =  1.0002776260281034E+00s -->
<VTKFile type="PolyData" version="0.1" byte_order="LittleEndian">
<PolyData>
<Piece NumberOfPoints="0000002400" NumberOfVerts="0" NumberOfLines="0" NumberOfStrips="0" NumberOfPolys="0">
<Points>
<DataArray type="Float32" Name="Position" NumberOfComponents="3" format="ascii">
  2.836567E-01   2.489986E-01   2.024773E-01   2.386503E+00   2.202354E-01   8.094428E-01   4.003069E+00   2.476743E-01   3.307275E-01   4.829758E+00   2.016025E-01   3.454497E-01   5.377155E+00   2.016793E-01   2.093060E-01   8.041812E+00   1.131892E+00   4.046764E-01   6.894427E+00   6.714795E-01   2.101601E-01   2.060865E+00   9.959935E+00   2.849755E+00   1.026438E+01   6.187963E+00   1.445801E+00   5.119791E+00   5.631075E-01   7.665529E-01   1.382297E+01   1.194469E+00   4.250720E+00   7.021496E+00   1.557086E+00   4.037286E-01   6.124650E+00   3.906079E-01   4.350893E+00   1.613628E+00   2.174963E-01   9.645010E-01   4.650416E+00   5.001321E-01   6.745725E-01   3.694463E+00   7.504033E-01   3.689634E+00   3.171328E+00   9.371315E-01   2.292542E+00   2.432303E+00   8.142629E-01   2.706779E+00   3.975502E+00   5.306110E-01   1.714032E+00   4.703008E+00   5.370409E+00   4.741138E+00   1.399504E+01   4.406363E+00   3.333434E+00   1.165571E+01   4.148386E+00   3.173553E+00   6.128610E+00   1.958114E+01   6.392865E-01   9.279976E+00   1.262901E+01   2.281217E+00   9.448562E+00   3.817885E+00   6.028693E-01   3.090473E+00   3.091688E+00   1.163627E+00   5.820839E+00   1.179902E+00   4.160444E-01   7.957362E+00   2.989830E+00   9.752775E-01   7.746591E+00   2.088279E+00   3.317180E-01   8.672704E+00   2.074026E-01   3.306470E-01   7.299363E+00   1.116242E+00   9.535828E-01   1.060397E+01   1.992650E+00   1.183268E+00   1.111287E+01   2.599996E+00   1.133483E+00   1.103726E+01   6.040880E-01   3.930944E-01   1.108202E+00   2.367758E-01   1.225838E+00   6.346681E-01   5.542620E-01   7.091113E-01   3.730069E+00   5.185838E-01   2.071849E-01   4.295296E+00   5.895392E-01   3.637802E-01   4.667920E+00   5.507904E-01   1.998951E-01   6.176005E+00   1.997018E-01   2.008243E-01   7.701676E+00   5.566192E+00   1.922374E+00   1.860515E+00   2.301358E+00   1.399307E+00   6.874579E+00   1.580115E+00   9.573222E-01   6.122852E+00   3.980148E-01   5.734476E-01   2.891500E+00   1.137049E+00   1.896570E+00   8.949695E+00   1.536276E+01   3.494922E+00   6.589591E+00   2.695889E+00   9.280950E-01   6.495650E+00   2.022049E-01   5.755572E-01   1.337914E+01   7.836322E+00   3.638233E+00   7.204811E+00   2.224148E+00   1.645732E+00   2.493477E+00   1.340218E+00   4.603371E+00   4.884408E+00   2.072581E-01   3.559803E+00   6.818327E+00   5.281444E+00   1.396222E+00   4.350884E+00   1.025181E+00   1.561413E+00   1.019108E+01   4.046243E+00   3.772190E+00   7.135401E+00   1.284778E+00   1.776629E+00   5.547382E+00   6.979904E-01   9.529535E-01   7.858730E+00   9.913297E+00   2.175351E+00   3.907301E+00   8.831232E-01   1.905836E+00   7.656471E+00   3.446240E+00   1.452765E+00   1.046216E+01   5.649191E+00   1.846715E+00   7.778707E+00   9.527039E+00   7.350185E-01   7.463006E+00   1.770864E+00   5.110185E-01   1.014850E+01   1.311152E+00   8.846927E-01   8.854186E+00   7.985212E-01   5.353985E-01   1.069364E+01   7.601976E-01   7.597613E-01   1.139245E+01   1.197735E+00   2.184015E+00   8.149730E-01   2.190391E-01   4.211296E-01   1.219871E+00   2.550312E-01   2.147394E-01   2.066716E+00   1.992598E-01   4.759097E-01   5.895502E+00   2.116054E-01   1.291967E+00   6.693456E+00   2.832645E-01   2.034352E-01   5.779953E+00   2.390266E-01   2.104148E-01   7.233048E+00   3.386501E-01   2.561382E-01   6.961457E+00   1.694676E+00   1.735988E+00   7.247205E+00   2.067108E+00   2.009442E-01   2.486134E+00   2.002461E+00   1.066423E+00   6.813136E+00   2.783914E-01   9.958740E-01   6.957730E+00   5.937017E+00   1.105141E+00   5.350191E+00   2.275655E-01   1.864593E+00   2.535165E+00   5.203047E-01   3.901515E+00   2.159683E+00   6.312247E-01   3.380811E+00   1.351819E+00   2.073792E+01   9.294046E-01   9.344835E+00   1.459850E+01   1.350224E+00   3.118738E+00   3.157275E-01   1.452880E+00   4.972158E+00   2.675065E+00   4.397018E+00   9.884152E+00   1.819469E+01   5.115598E-01   1.062028E+01   8.771627E+00   2.103961E+00   3.017481E+00   7.532004E-01   1.658156E+00   1.954789E+00   6.162956E-01   2.482730E+00   2.644068E+00   9.545735E-01   2.164198E+00   5.607081E+00   1.911114E+01   3.127237E+00   8.037071E+00   1.615255E+01   3.357693E+00   5.376019E+00   1.077490E+00   9.157445E-01   8.213161E+00   2.566461E+00   2.538467E-01   7.922778E+00   5.711145E-01   5.087862E-01   8.045841E+00   8.691892E+00   1.970919E+00   8.441211E+00   6.213251E+00   4.140768E-01   8.369907E+00   7.472300E+00   4.945867E+00   1.109845E+01   2.251909E-01   2.762540E-01   1.265516E+01   2.916939E-01   6.396497E-01   1.758972E+00   4.249809E-01   1.444980E+00   3.986429E+00   2.004752E-01   8.092312E-01   4.366439E+00   2.088176E-01   5.945812E-01   5.605773E+00   2.079591E-01   5.682492E-01   5.873461E+00   2.038870E-01   8.926319E-01   7.354467E+00   1.769726E+00   1.337522E+00   9.781520E-01   9.841728E-01   3.551632E+00   2.497158E+00   4.711043E+00   5.158299E-01   5.433602E+00   8.224124E-01   3.768777E-01   7.864935E-01   5.454463E-01   2.035306E-01   4.637236E+00   8.454086E-01   3.803131E+00   1.436443E+01   1.078338E+01   4.692528E+00   6.007395E-01   9.465387E-01   3.648978E+00   8.622946E+00   4.520895E-01   1.823740E+00   3.301941E+00   8.112191E-01   4.157266E+00   6.696727E+00   4.275735E+00   3.602253E+00   5.659716E+00   1.122121E+01   4.295230E+00   2.301764E+00   1.537610E+00   4.235915E+00   3.619597E+00   8.901049E-01   2.719231E+00   1.502264E+00   3.126892E+00   2.570160E+00   5.977931E+00   4.095814E-01   3.256289E+00   6.504596E+00   2.273857E+01   2.250451E+00   5.751771E+00   5.299888E-01   2.702876E+00   6.982585E-01   1.937678E+00   4.293500E+00   6.095323E+00   7.553126E-01   2.976633E+00   5.974516E+00   9.837596E-01   1.597369E+00   8.931190E+00   8.735623E+00   2.363852E-01   7.319016E+00   6.219909E+00   2.150046E+00   8.107821E+00   1.402657E+00   1.350492E+00   8.983289E+00   4.452283E-01   2.391877E-01   1.216526E+01   3.269593E-01   1.071133E+00   1.438509E+01   8.913499E-01   3.512807E-01   7.355565E-01   2.643937E-01   1.661066E+00   4.584764E+00   6.034660E-01   2.201764E+00   4.093233E+00   1.081986E+00   3.639001E-01   5.511071E+00   2.286898E-01   1.467836E+00   7.148425E+00   7.458385E-01   1.035650E+00   6.949340E+00   3.240156E-01   6.209224E-01   7.553956E+00   7.196038E+00   3.044730E+00   1.399197E+00   1.301841E+01   3.874925E+00   7.528827E+00   2.351070E+00   6.668750E-01   9.326140E+00   9.867142E-01   4.700085E+00   1.356600E+01   3.507836E-01   3.276893E+00   1.116043E+01   5.033249E-01   1.102399E+00   5.066269E+00   2.051108E-01   1.426994E+00   8.310983E+00   4.279877E+00   1.811050E+00   6.622077E+00   5.810072E-01   1.239031E+00   1.450016E+01   5.955455E-01   2.180184E+00   6.360422E+00   1.785384E+00   3.668554E+00   1.083979E+01   8.745393E-01   3.629721E+00   3.163509E+00   6.439939E-01   4.597847E+00   1.082347E+01   3.514526E-01   6.270497E-01   3.468570E+00   2.153601E-01   1.647173E+00   2.007909E+00   9.114257E-01   3.898915E+00   1.021675E+01   9.107529E+00   3.894669E-01   1.450814E+00   7.658923E+00   2.347150E+00   1.555471E+00   5.377551E+00   1.660216E+00   6.494822E+00   6.537835E+00   2.989837E+00   6.932588E+00   5.385394E+00   2.183014E+00   7.304231E+00   4.928686E-01   6.223345E-01   9.549871E+00   4.281080E-01   4.492499E-01   1.157151E+01   4.455521E-01   2.926344E-01   1.368557E+01   6.839195E-01   4.497431E-01   1.439817E+01   3.729330E-01   4.959478E-01   3.623277E+00   2.331509E-01   1.025035E+00   6.532332E+00   4.986826E-01   2.969808E+00   4.423195E+00   2.069605E-01   2.007604E-01   6.045943E+00   6.097608E-01   1.046231E+00   7.569603E+00   6.626628E-01   1.213993E+00   1.203525E+00   7.117298E+00   4.875862E-01   6.887094E+00   2.482587E+00   5.727593E-01   6.085507E+00   1.091601E+01   2.047709E+00   1.286929E+00   2.214193E-01   1.687173E+00   1.200355E+01   2.370786E-01   3.367230E+00   6.407108E+00   1.180647E+01   1.614040E+00   6.941430E+00   1.187897E+00   6.424699E-01   9.095417E+00   6.488871E+00   3.220909E+00   1.816455E+00   4.230133E-01   3.491290E+00   3.948133E+00   4.535182E-01   1.138765E+00   6.028660E+00   1.547411E+00   9.687130E-01   1.407559E+01   1.433642E+00   6.431803E-01   1.111419E+01   5.348498E-01   1.822208E+00   9.959059E+00   2.799037E-01   2.171329E+00   9.927749E+00   2.024506E-01   2.315248E-01   6.370688E+00   4.996408E+00   1.829513E+00   6.840802E+00   1.357527E+00   1.455900E+00   1.246039E+01   8.942422E+00   1.283426E+00   8.407993E+00   1.015947E+01   1.148293E+00   6.653123E+00   6.103647E+00   4.131929E+00   7.122478E+00   9.418846E+00   2.283793E+00   5.274049E+00   9.524628E+00   1.345301E+00   7.779564E+00   4.515174E+00   1.453496E+00   2.082333E+00   1.331346E+01   1.149258E+00   1.051828E+01   3.833425E-01   2.910183E-01   1.470380E+01   4.922932E-01   8.137410E-01   9.319286E-01   3.536278E-01   2.511993E+00   3.186890E+00   2.268431E-01   6.246902E-01   4.620391E+00   2.212076E-01   1.491563E+00   5.429904E+00   1.970575E-01   1.080297E+00   8.902086E+00   7.094032E+00   9.389307E-01   4.275830E+00   3.817681E+00   1.370172E+00   2.438708E+00   9.879084E+00   1.858357E+00   4.428203E+00   4.172068E+00   3.876466E-01   4.303562E+00   1.972779E-01   2.929316E+00   1.426781E+00   1.472191E+00   1.917659E+00   1.156435E+01   6.347997E-01   1.830050E+00   1.086283E+00   1.705917E+00   1.471762E+00   7.636086E+00   5.085616E+00   2.561684E+00   1.171757E+01   1.295485E+00   2.428064E+00   1.043618E+01   3.779733E+00   4.919523E-01   1.542937E+00   1.342182E+01   1.731591E+00   3.388276E+00   5.435339E-01   1.899728E+00   1.261975E+01   7.385921E-01   4.271410E+00   6.775068E+00   1.285016E+00  
[...]
<PointData Scalars="Diameter" Vectors="Velocity">
<DataArray type="Float32" Name="Diameter" format="ascii">
  4.000000E-01   4.000000E-01   4.000000E-01   4.000000E-01   4.000000E-01   4.000000E-01   4.000000E-01   4.000000E-01   4.000000E-01   4.000000E-01   4.000000E-01   4.000000E-01   4.000000E-01   4.000000E-01   4.000000E-01   4.000000E-01   4.000000E-01   4.000000E-01   4.000000E-01   4.000000E-01   4.000000E-01   4.000000E-01   4.000000E-01   4.000000E-01   4.000000E-01   4.000000E-01   4.000000E-01   4.000000E-01   4.000000E-01   4.000000E-01   4.000000E-01   4.000000E-01   4.000000E-01   4.000000E-01   4.000000E-01   4.000000E-01   4.000000E-01   4.000000E-01   4.000000E-01   4.000000E-01   4.000000E-01   4.000000E-01   4.000000E-01   4.000000E-01   4.000000E-01   4.000000E-01   4.000000E-01   4.000000E-01   4.000000E-01   4.000000E-01   4.000000E-01   4.000000E-01   4.000000E-01   4.000000E-01   4.000000E-01   4.000000E-01   4.000000E-01   4.000000E-01   4.000000E-01   4.000000E-01   4.000000E-01   4.000000E-01   4.000000E-01   4.000000E-01   4.000000E-01   4.000000E-01   4.000000E-01   4.000000E-01   4.000000E-01   4.000000E-01   4.000000E-01   4.000000E-01   4.000000E-01   4.000000E-01   4.000000E-01   4.000000E-01   4.000000E-01   4.000000E-01   4.000000E-01   4.000000E-01   4.000000E-01   4.000000E-01   4.000000E-01   4.000000E-01   4.000000E-01   4.000000E-01   4.000000E-01   4.000000E-01   4.000000E-01   4.000000E-01   4.000000E-01   4.000000E-01   4.000000E-01   4.000000E-01   4.000000E-01   4.000000E-01   4.000000E-01   4.000000E-01   4.000000E-01   4.000000E-01   4.000000E-01   4.000000E-01   4.000000E-01   4.000000E-01   4.000000E-01   4.000000E-01   4.000000E-01   4.000000E-01   4.000000E-01   4.000000E-01   4.000000E-01   4.000000E-01   4.000000E-01   4.000000E-01   4.000000E-01   4.000000E-01   4.000000E-01   4.000000E-01   4.000000E-01   4.000000E-01   4.000000E-01   4.000000E-01   4.000000E-01   4.000000E-01   4.000000E-01   4.000000E-01   4.000000E-01   4.000000E-01   4.000000E-01   4.000000E-01   4.000000E-01   4.000000E-01   4.000000E-01   4.000000E-01   4.000000E-01   4.000000E-01   4.000000E-01   4.000000E-01   4.000000E-01   4.000000E-01   4.000000E-01   4.000000E-01   4.000000E-01   4.000000E-01   4.000000E-01   4.000000E-01   4.000000E-01   4.000000E-01   4.000000E-01   4.000000E-01   4.000000E-01   4.000000E-01   4.000000E-01   4.000000E-01   4.000000E-01   4.000000E-01   4.000000E-01   4.000000E-01   4.000000E-01   4.000000E-01   4.000000E-01   4.000000E-01   4.000000E-01   4.000000E-01   4.000000E-01   4.000000E-01   4.000000E-01   4.000000E-01   4.000000E-01   4.000000E-01   4.000000E-01   4.000000E-01   4.000000E-01   4.000000E-01   4.000000E-01   4.000000E-01   4.000000E-01   4.000000E-01   4.000000E-01   4.000000E-01   4.000000E-01   4.000000E-01   4.000000E-01   4.000000E-01   4.000000E-01   4.000000E-01   4.000000E-01   4.000000E-01   4.000000E-01   4.000000E-01   4.000000E-01   4.000000E-01   4.000000E-01   4.000000E-01   4.000000E-01   4.000000E-01   4.000000E-01   4.000000E-01   4.000000E-01   4.000000E-01   4.000000E-01   4.000000E-01   4.000000E-01   4.000000E-01   4.000000E-01   4.000000E-01   4.000000E-01   4.000000E-01   4.000000E-01   4.000000E-01   4.000000E-01   4.000000E-01   4.000000E-01   4.000000E-01   4.000000E-01   4.000000E-01   4.000000E-01   4.000000E-01   4.000000E-01   4.000000E-01   4.000000E-01   4.000000E-01   4.000000E-01   4.000000E-01   4.000000E-01   4.000000E-01   4.000000E-01   4.000000E-01   4.000000E-01   4.000000E-01   4.000000E-01   4.000000E-01   4.000000E-01   4.000000E-01   4.000000E-01   4.000000E-01   4.000000E-01   4.000000E-01   4.000000E-01   4.000000E-01   4.000000E-01   4.000000E-01   4.000000E-01   4.000000E-01   4.000000E-01   4.000000E-01   4.000000E-01   4.000000E-01   4.000000E-01   4.000000E-01   4.000000E-01   4.000000E-01   4.000000E-01   4.000000E-01   4.000000E-01   4.000000E-01   4.000000E-01   4.000000E-01   4.000000E-01   4.000000E-01   4.000000E-01   4.000000E-01   4.000000E-01   4.000000E-01   4.000000E-01   4.000000E-01   4.000000E-01   4.000000E-01   4.000000E-01   4.000000E-01   4.000000E-01   4.000000E-01   4.000000E-01   4.000000E-01   4.000000E-01   4.000000E-01   4.000000E-01   4.000000E-01   4.000000E-01   4.000000E-01   4.000000E-01   4.000000E-01   4.000000E-01   4.000000E-01   4.000000E-01   4.000000E-01   4.000000E-01   4.000000E-01   4.000000E-01   4.000000E-01   4.000000E-01   4.000000E-01   4.000000E-01   4.000000E-01   4.000000E-01   4.000000E-01   4.000000E-01   4.000000E-01   4.000000E-01   4.000000E-01   4.000000E-01   4.000000E-01   4.000000E-01   4.000000E-01   4.000000E-01   4.000000E-01   4.000000E-01   4.000000E-01   4.000000E-01   4.000000E-01   4.000000E-01   4.000000E-01   4.000000E-01   4.000000E-01   4.000000E-01   4.000000E-01   4.000000E-01   4.000000E-01   4.000000E-01   4.000000E-01   4.000000E-01   4.000000E-01   4.000000E-01   4.000000E-01   4.000000E-01   4.000000E-01   4.000000E-01   4.000000E-01   4.000000E-01   4.000000E-01   4.000000E-01   4.000000E-01   4.000000E-01   4.000000E-01   4.000000E-01   4.000000E-01   4.000000E-01   4.000000E-01   4.000000E-01   4.000000E-01   4.000000E-01   4.000000E-01   4.000000E-01   4.000000E-01   4.000000E-01   4.000000E-01   4.000000E-01   4.000000E-01   4.000000E-01   4.000000E-01   4.000000E-01   4.000000E-01   4.000000E-01   4.000000E-01   4.000000E-01   4.000000E-01   4.000000E-01   4.000000E-01   4.000000E-01   4.000000E-01   4.000000E-01   4.000000E-01   4.000000E-01   4.000000E-01   4.000000E-01   4.000000E-01   4.000000E-01   4.000000E-01   4.000000E-01   4.000000E-01   4.000000E-01   4.000000E-01   4.000000E-01   4.000000E-01   4.000000E-01   4.000000E-01   4.000000E-01   4.000000E-01   4.000000E-01   4.000000E-01   4.000000E-01   4.000000E-01   4.000000E-01   4.000000E-01   4.000000E-01   4.000000E-01   4.000000E-01   4.000000E-01   4.000000E-01   4.000000E-01   4.000000E-01   4.000000E-01   4.000000E-01   4.000000E-01   4.000000E-01   4.000000E-01   4.000000E-01   4.000000E-01   4.000000E-01   4.000000E-01   4.000000E-01   4.000000E-01   4.000000E-01   4.000000E-01   4.000000E-01   4.000000E-01   4.000000E-01   4.000000E-01   4.000000E-01   4.000000E-01   4.000000E-01   4.000000E-01   4.000000E-01   4.000000E-01   4.000000E-01   4.000000E-01   4.000000E-01   4.000000E-01   4.000000E-01   4.000000E-01   4.000000E-01   4.000000E-01   4.000000E-01   4.000000E-01   4.000000E-01   4.000000E-01   4.000000E-01   4.000000E-01   4.000000E-01   4.000000E-01   4.000000E-01   4.000000E-01   4.000000E-01   4.000000E-01   4.000000E-01   4.000000E-01   4.000000E-01   4.000000E-01   4.000000E-01   4.000000E-01   4.000000E-01   4.000000E-01   4.000000E-01   4.000000E-01   4.000000E-01   4.000000E-01   4.000000E-01   4.000000E-01   4.000000E-01   4.000000E-01   4.000000E-01   4.000000E-01   4.000000E-01   4.000000E-01   4.000000E-01   4.000000E-01   4.000000E-01   4.000000E-01   4.000000E-01   4.000000E-01   4.000000E-01   4.000000E-01   4.000000E-01   4.000000E-01   4.000000E-01   4.000000E-01   4.000000E-01   4.000000E-01   4.000000E-01   4.000000E-01   4.000000E-01   4.000000E-01   4.000000E-01   4.000000E-01   4.000000E-01   4.000000E-01   4.000000E-01   4.000000E-01   4.000000E-01   4.000000E-01   4.000000E-01   4.000000E-01   4.000000E-01   4.000000E-01   4.000000E-01   4.000000E-01   4.000000E-01   4.000000E-01   4.000000E-01   4.000000E-01   4.000000E-01   4.000000E-01   4.000000E-01   4.000000E-01   4.000000E-01   4.000000E-01   4.000000E-01   4.000000E-01   4.000000E-01   4.000000E-01   4.000000E-01   4.000000E-01   4.000000E-01   4.000000E-01   4.000000E-01   4.000000E-01   4.000000E-01   4.000000E-01   4.000000E-01   4.000000E-01   4.000000E-01   4.000000E-01   4.000000E-01   4.000000E-01   4.000000E-01   4.000000E-01   4.000000E-01   4.000000E-01   4.000000E-01   4.000000E-01   4.000000E-01   4.000000E-01   4.000000E-01   4.000000E-01   4.000000E-01   4.000000E-01   4.000000E-01   4.000000E-01   4.000000E-01   4.000000E-01   4.000000E-01   4.000000E-01   4.000000E-01   4.000000E-01   4.000000E-01   4.000000E-01   4.000000E-01   4.000000E-01   4.000000E-01   4.000000E-01   4.000000E-01   4.000000E-01   4.000000E-01   4.000000E-01   4.000000E-01   4.000000E-01   4.000000E-01   4.000000E-01   4.000000E-01   4.000000E-01   4.000000E-01   4.000000E-01   4.000000E-01   4.000000E-01   4.000000E-01   4.000000E-01   4.000000E-01   4.000000E-01   4.000000E-01   4.000000E-01   4.000000E-01   4.000000E-01   4.000000E-01   4.000000E-01   4.000000E-01   4.000000E-01   4.000000E-01   4.000000E-01   4.000000E-01   4.000000E-01   4.000000E-01   4.000000E-01   4.000000E-01   4.000000E-01   4.000000E-01   4.000000E-01   4.000000E-01   4.000000E-01   4.000000E-01   4.000000E-01   4.000000E-01   4.000000E-01   4.000000E-01   4.000000E-01   4.000000E-01   4.000000E-01   4.000000E-01   4.000000E-01   4.000000E-01   4.000000E-01   4.000000E-01   4.000000E-01   4.000000E-01   4.000000E-01   4.000000E-01   4.000000E-01   4.000000E-01   4.000000E-01   4.000000E-01   4.000000E-01   4.000000E-01   4.000000E-01   4.000000E-01   4.000000E-01   4.000000E-01   4.000000E-01   4.000000E-01   4.000000E-01   4.000000E-01   4.000000E-01   4.000000E-01   4.000000E-01   4.000000E-01   4.000000E-01   4.000000E-01   4.000000E-01   4.000000E-01   4.000000E-01   4.000000E-01   4.000000E-01   4.000000E-01   4.000000E-01   4.000000E-01   4.000000E-01   4.000000E-01   4.000000E-01   4.000000E-01   4.000000E-01   4.000000E-01   4.000000E-01   4.000000E-01   4.000000E-01   4.000000E-01   4.000000E-01   4.000000E-01   4.000000E-01   4.000000E-01   4.000000E-01   4.000000E-01   4.000000E-01   4.000000E-01   4.000000E-01   4.000000E-01   4.000000E-01   4.000000E-01   4.000000E-01   4.000000E-01   4.000000E-01   4.000000E-01   4.000000E-01   4.000000E-01   4.000000E-01   4.000000E-01   4.000000E-01   4.000000E-01   4.000000E-01   4.000000E-01   4.000000E-01   4.000000E-01   4.000000E-01   4.000000E-01   4.000000E-01   4.000000E-01   4.000000E-01   4.000000E-01   4.000000E-01   4.000000E-01   4.000000E-01   4.000000E-01   4.000000E-01   4.000000E-01   4.000000E-01   4.000000E-01   4.000000E-01   4.000000E-01   4.000000E-01   4.000000E-01   4.000000E-01   4.000000E-01   4.000000E-01   4.000000E-01   4.000000E-01   4.000000E-01   4.000000E-01   4.000000E-01   4.000000E-01   4.000000E-01   4.000000E-01   4.000000E-01   4.000000E-01   4.000000E-01   4.000000E-01   4.000000E-01   4.000000E-01   4.000000E-01   4.000000E-01   4.000000E-01   4.000000E-01   4.000000E-01   4.000000E-01   4.000000E-01   4.000000E-01   4.000000E-01   4.000000E-01   4.000000E-01   4.000000E-01   4.000000E-01   4.000000E-01   4.000000E-01   4.000000E-01   4.000000E-01   4.000000E-01   4.000000E-01   4.000000E-01   4.000000E-01   4.000000E-01   4.000000E-01   4.000000E-01   4.000000E-01   4.000000E-01   4.000000E-01   4.000000E-01   4.000000E-01   4.000000E-01   4.000000E-01   4.000000E-01   4.000000E-01   4.000000E-01   4.000000E-01   4.000000E-01   4.000000E-01   4.000000E-01   4.000000E-01   4.000000E-01   4.000000E-01   4.000000E-01   4.000000E-01   4.000000E-01   4.000000E-01   4.000000E-01   4.000000E-01   4.000000E-01   4.000000E-01   4.000000E-01   4.000000E-01   4.000000E-01   4.000000E-01   4.000000E-01   4.000000E-01   4.000000E-01   4.000000E-01   4.000000E-01   4.000000E-01   4.000000E-01   4.000000E-01   4.000000E-01   4.000000E-01   4.000000E-01   4.000000E-01   4.000000E-01   4.000000E-01   4.000000E-01   4.000000E-01   4.000000E-01   4.000000E-01   4.000000E-01   4.000000E-01   4.000000E-01   4.000000E-01   4.000000E-01   4.000000E-01   4.000000E-01   4.000000E-01   4.000000E-01   4.000000E-01   4.000000E-01   4.000000E-01   4.000000E-01   4.000000E-01   4.000000E-01   4.000000E-01   4.000000E-01   4.000000E-01   4.000000E-01   4.000000E-01   4.000000E-01   4.000000E-01   4.000000E-01   4.000000E-01   4.000000E-01   4.000000E-01   4.000000E-01   4.000000E-01   4.000000E-01   4.000000E-01   4.000000E-01   4.000000E-01   4.000000E-01   4.000000E-01   4.000000E-01   4.000000E-01   4.000000E-01   4.000000E-01   4.000000E-01   4.000000E-01   4.000000E-01   4.000000E-01   4.000000E-01   4.000000E-01   4.000000E-01   4.000000E-01   4.000000E-01   4.000000E-01   4.000000E-01   4.000000E-01   4.000000E-01   4.000000E-01   4.000000E-01   4.000000E-01   4.000000E-01   4.000000E-01   4.000000E-01   4.000000E-01   4.000000E-01   4.000000E-01   4.000000E-01   4.000000E-01   4.000000E-01   4.000000E-01   4.000000E-01   4.000000E-01   4.000000E-01   4.000000E-01   4.000000E-01   4.000000E-01   4.000000E-01   4.000000E-01   4.000000E-01   4.000000E-01   4.000000E-01   4.000000E-01   4.000000E-01   4.000000E-01   4.000000E-01   4.000000E-01   4.000000E-01   4.000000E-01   4.000000E-01   4.000000E-01   4.000000E-01   4.000000E-01   4.000000E-01   4.000000E-01   4.000000E-01   4.000000E-01   4.000000E-01   4.000000E-01   4.000000E-01   4.000000E-01   4.000000E-01   4.000000E-01   4.000000E-01   4.000000E-01   4.000000E-01   4.000000E-01   4.000000E-01   4.000000E-01   4.000000E-01   4.000000E-01   4.000000E-01   4.000000E-01   4.000000E-01   4.000000E-01   4.000000E-01   4.000000E-01   4.000000E-01   4.000000E-01   4.000000E-01   4.000000E-01   4.000000E-01   4.000000E-01   4.000000E-01   4.000000E-01   4.000000E-01   4.000000E-01   4.000000E-01   4.000000E-01   4.000000E-01   4.000000E-01   4.000000E-01   4.000000E-01   4.000000E-01   4.000000E-01   4.000000E-01   4.000000E-01   4.000000E-01   4.000000E-01   4.000000E-01   4.000000E-01   4.000000E-01   4.000000E-01   4.000000E-01   4.000000E-01   4.000000E-01   4.000000E-01   4.000000E-01   4.000000E-01   4.000000E-01   4.000000E-01   4.000000E-01   4.000000E-01   4.000000E-01   4.000000E-01   4.000000E-01   4.000000E-01   4.000000E-01   4.000000E-01   4.000000E-01   4.000000E-01   4.000000E-01   4.000000E-01   4.000000E-01   4.000000E-01   4.000000E-01   4.000000E-01   4.000000E-01   4.000000E-01   4.000000E-01   4.000000E-01   4.000000E-01   4.000000E-01   4.000000E-01   4.000000E-01   4.000000E-01   4.000000E-01   4.000000E-01   4.000000E-01   4.000000E-01   4.000000E-01   4.000000E-01   4.000000E-01   4.000000E-01   4.000000E-01   4.000000E-01   4.000000E-01   4.000000E-01   4.000000E-01   4.000000E-01   4.000000E-01   4.000000E-01   4.000000E-01   4.000000E-01   4.000000E-01   4.000000E-01   4.000000E-01   4.000000E-01   4.000000E-01   4.000000E-01   4.000000E-01   4.000000E-01   4.000000E-01   4.000000E-01   4.000000E-01   4.000000E-01   4.000000E-01   4.000000E-01   4.000000E-01   4.000000E-01   4.000000E-01   4.000000E-01   4.000000E-01   4.000000E-01   4.000000E-01   4.000000E-01   4.000000E-01   4.000000E-01   4.000000E-01   4.000000E-01   4.000000E-01   4.000000E-01   4.000000E-01   4.000000E-01   4.000000E-01   4.000000E-01   4.000000E-01   4.000000E-01   4.000000E-01   4.000000E-01   4.000000E-01   4.000000E-01   4.000000E-01   4.000000E-01   4.000000E-01   4.000000E-01   4.000000E-01   4.000000E-01   4.000000E-01   4.000000E-01   4.000000E-01   4.000000E-01   4.000000E-01   4.000000E-01   4.000000E-01   4.000000E-01   4.000000E-01   4.000000E-01   4.000000E-01   4.000000E-01   4.000000E-01   4.000000E-01   4.000000E-01   4.000000E-01   4.000000E-01   4.000000E-01   4.000000E-01   4.000000E-01   4.000000E-01   4.000000E-01   4.000000E-01   4.000000E-01   4.000000E-01   4.000000E-01   4.000000E-01   4.000000E-01   4.000000E-01   4.000000E-01   4.000000E-01   4.000000E-01   4.000000E-01   4.000000E-01   4.000000E-01   4.000000E-01   4.000000E-01   4.000000E-01   4.000000E-01   4.000000E-01   4.000000E-01   4.000000E-01   4.000000E-01   4.000000E-01   4.000000E-01   4.000000E-01   4.000000E-01   4.000000E-01   4.000000E-01   4.000000E-01   4.000000E-01   4.000000E-01   4.000000E-01   4.000000E-01   4.000000E-01   4.000000E-01   4.000000E-01   4.000000E-01   4.000000E-01   4.000000E-01   4.000000E-01   4.000000E-01   4.000000E-01   4.000000E-01   4.000000E-01   4.000000E-01   4.000000E-01   4.000000E-01   4.000000E-01   4.000000E-01   4.000000E-01   4.000000E-01   4.000000E-01   4.000000E-01   4.000000E-01   4.000000E-01   4.000000E-01   4.000000E-01   4.000000E-01   4.000000E-01   4.000000E-01   4.000000E-01   4.000000E-01   4.000000E-01   4.000000E-01   4.000000E-01   4.000000E-01   4.000000E-01   4.000000E-01   4.000000E-01   4.000000E-01   4.000000E-01   4.000000E-01   4.000000E-01   4.000000E-01   4.000000E-01   4.000000E-01   4.000000E-01   4.000000E-01   4.000000E-01   4.000000E-01   4.000000E-01   4.000000E-01   4.000000E-01   4.000000E-01   4.000000E-01   4.000000E-01   4.000000E-01   4.000000E-01   4.000000E-01   4.000000E-01   4.000000E-01   4.000000E-01   4.000000E-01   4.000000E-01   4.000000E-01   4.000000E-01   4.000000E-01   4.000000E-01   4.000000E-01   4.000000E-01   4.000000E-01   4.000000E-01   4.000000E-01   4.000000E-01   4.000000E-01   4.000000E-01   4.000000E-01   4.000000E-01   4.000000E-01   4.000000E-01   4.000000E-01   4.000000E-01   4.000000E-01   4.000000E-01   4.000000E-01   4.000000E-01   4.000000E-01   4.000000E-01   4.000000E-01   4.000000E-01   4.000000E-01   4.000000E-01   4.000000E-01   4.000000E-01   4.000000E-01   4.000000E-01   4.000000E-01   4.000000E-01   4.000000E-01   4.000000E-01   4.000000E-01   4.000000E-01   4.000000E-01   4.000000E-01   4.000000E-01   4.000000E-01   4.000000E-01   4.000000E-01   4.000000E-01   4.000000E-01   4.000000E-01   4.000000E-01   4.000000E-01   4.000000E-01   4.000000E-01   4.000000E-01   4.000000E-01   4.000000E-01   4.000000E-01   4.000000E-01   4.000000E-01   4.000000E-01   4.000000E-01   4.000000E-01   4.000000E-01   4.000000E-01   4.000000E-01   4.000000E-01   4.000000E-01   4.000000E-01   4.000000E-01   4.000000E-01   4.000000E-01   4.000000E-01   4.000000E-01   4.000000E-01   4.000000E-01   4.000000E-01   4.000000E-01   4.000000E-01   4.000000E-01   4.000000E-01   4.000000E-01   4.000000E-01   4.000000E-01   4.000000E-01   4.000000E-01   4.000000E-01   4.000000E-01   4.000000E-01   4.000000E-01   4.000000E-01   4.000000E-01   4.000000E-01   4.000000E-01   4.000000E-01   4.000000E-01   4.000000E-01   4.000000E-01   4.000000E-01   4.000000E-01   4.000000E-01   4.000000E-01   4.000000E-01   4.000000E-01   4.000000E-01   4.000000E-01   4.000000E-01   4.000000E-01   4.000000E-01   4.000000E-01   4.000000E-01   4.000000E-01   4.000000E-01   4.000000E-01   4.000000E-01   4.000000E-01   4.000000E-01   4.000000E-01   4.000000E-01   4.000000E-01   4.000000E-01   4.000000E-01   4.000000E-01   4.000000E-01   4.000000E-01   4.000000E-01   4.000000E-01   4.000000E-01   4.000000E-01   4.000000E-01   4.000000E-01   4.000000E-01   4.000000E-01   4.000000E-01   4.000000E-01   4.000000E-01   4.000000E-01   4.000000E-01   4.000000E-01   4.000000E-01   4.000000E-01   4.000000E-01   4.000000E-01   4.000000E-01   4.000000E-01   4.000000E-01   4.000000E-01   4.000000E-01   4.000000E-01   4.000000E-01   4.000000E-01   4.000000E-01   4.000000E-01   4.000000E-01   4.000000E-01   4.000000E-01   4.000000E-01   4.000000E-01   4.000000E-01   4.000000E-01   4.000000E-01   4.000000E-01   4.000000E-01   4.000000E-01   4.000000E-01   4.000000E-01   4.000000E-01   4.000000E-01   4.000000E-01   4.000000E-01   4.000000E-01   4.000000E-01   4.000000E-01   4.000000E-01   4.000000E-01   4.000000E-01   4.000000E-01   4.000000E-01   4.000000E-01   4.000000E-01   4.000000E-01   4.000000E-01   4.000000E-01   4.000000E-01   4.000000E-01   4.000000E-01   4.000000E-01   4.000000E-01   4.000000E-01   4.000000E-01   4.000000E-01   4.000000E-01   4.000000E-01   4.000000E-01   4.000000E-01   4.000000E-01   4.000000E-01   4.000000E-01   4.000000E-01   4.000000E-01   4.000000E-01   4.000000E-01   4.000000E-01   4.000000E-01   4.000000E-01   4.000000E-01   4.000000E-01   4.000000E-01   4.000000E-01   4.000000E-01   4.000000E-01   4.000000E-01   4.000000E-01   4.000000E-01   4.000000E-01   4.000000E-01   4.000000E-01   4.000000E-01   