<?xml version="1.0"?>
<!-- Time =  4.0999976260278919E+00s -->
<VTKFile type="PolyData" version="0.1" byte_order="LittleEndian">
<PolyData>
<Piece NumberOfPoints="0000002400" NumberOfVerts="0" NumberOfLines="0" NumberOfStrips="0" NumberOfPolys="0">
<Points>
<DataArray type="Float32" Name="Position" NumberOfComponents="3" format="ascii">
  7.222897E+00   6.004760E+00   2.200464E+00   1.008941E+01   3.164675E-01   1.315106E+00   9.440096E+00   2.414723E-01   1.870231E+00   2.125568E+00   4.517094E+00   1.303579E+00   1.064348E+01   2.432690E+00   1.754783E+00   1.255177E+01   6.177718E+00   2.832411E+00   8.603133E+00   2.035835E+00   4.320570E+00   2.940665E+00   4.140184E+00   1.634445E+00   2.506543E+00   9.797185E-01   4.203709E+00   1.392252E+01   1.449470E+00   3.192737E+00   1.077651E+01   9.699328E+00   1.424567E+00   1.080251E+01   6.086546E-01   4.482264E+00   3.675719E+00   1.365224E+00   3.499470E+00   9.252912E+00   1.002208E+01   4.819872E+00   7.357630E+00   1.598179E+00   4.322743E+00   1.175428E+01   1.391066E+01   4.300973E+00   4.967096E+00   5.916635E+00   2.375571E+00   2.447701E+00   5.826221E-01   3.333745E+00   6.247500E+00   1.807488E+00   2.030135E+00   1.001769E+00   7.848945E+00   1.601833E+00   4.104319E+00   1.421107E+01   4.944212E+00   9.646937E-01   1.875548E+00   4.614109E+00   7.422187E+00   8.646373E+00   4.972218E+00   2.756943E+00   3.967082E-01   3.917913E+00   2.063899E+00   7.625730E-01   3.400130E+00   6.680184E+00   2.128667E-01   3.686748E+00   1.057747E+01   2.264636E-01   3.495005E+00   6.724757E+00   4.668294E+00   8.995188E-01   1.251142E+01   1.930589E+01   4.334873E-01   1.011669E+00   2.534650E+00   7.208816E-01   6.773284E+00   1.075119E+00   4.180048E+00   1.303031E+00   2.910698E-01   3.731932E+00   4.196537E+00   2.063841E-01   1.613078E+00   4.908727E+00   5.637431E-01   2.261652E+00   3.725301E+00   9.292362E-01   6.375082E-01   1.067554E+01   1.124196E+01   1.252716E+00   1.440460E+01   6.106282E-01   2.501854E+00   1.340192E+01   1.605308E+01   9.754725E-01   1.324562E+01   1.276096E+01   1.315026E+00   7.882604E+00   2.955643E-01   1.548860E+00   9.269691E+00   8.167993E+00   4.413167E+00   1.085434E+01   1.354684E+01   3.356059E+00   3.923639E+00   2.178373E-01   2.037277E-01   3.203582E+00   7.151440E-01   2.893659E+00   1.066225E+01   3.653046E-01   1.448461E+00   8.261004E+00   1.326880E+01   2.553710E+00   1.466064E+01   8.623326E+00   1.097634E+00   5.270757E+00   8.512284E-01   1.359999E+00   7.808384E+00   3.637821E+00   2.077168E+00   5.766073E+00   1.854649E+01   1.360587E+00   8.578219E+00   1.116192E+00   1.356395E+00   5.511292E+00   6.412839E+00   2.030966E+00   1.474316E+01   9.291650E+00   3.945401E+00   7.414358E+00   7.442611E+00   9.836599E-01   2.013056E-01   4.557493E-01   3.395763E+00   6.943877E+00   6.284858E+00   3.041154E+00   8.951663E-01   9.182811E-01   4.957230E+00   1.166988E+01   1.172065E+00   4.384616E+00   1.422720E+01   3.988493E-01   2.898005E+00   5.327839E+00   1.203795E+01   2.581511E+00   2.823341E+00   5.212759E-01   2.689147E+00   2.667199E+00   1.814869E-01   4.296654E+00   5.815193E+00   8.273559E+00   4.934362E+00   1.024055E+01   1.066080E+01   1.168673E+00   1.248129E+01   7.402003E+00   2.475617E+00   8.733735E+00   2.566669E+01   3.683805E+00   1.285538E+01   3.139026E+00   1.339269E+00   1.121587E+01   2.135161E+01   2.500039E+00   1.129463E+01   8.421753E-01   3.646421E-01   7.482845E+00   6.270665E-01   3.069924E+00   6.530990E+00   5.449202E+00   1.606271E+00   7.356586E+00   4.439204E+00   3.006125E+00   7.218808E-01   1.696182E+00   4.084626E+00   6.171290E-01   1.395189E+00   1.588809E+00   3.270840E+00   6.068970E-01   3.719388E+00   1.628790E+00   3.548817E-01   3.940693E+00   6.857059E+00   1.366956E+01   2.894406E+00   3.185013E-01   2.396392E-01   3.009600E-01   5.946004E+00   1.245360E+01   1.790911E+00   4.188558E+00   2.554860E-01   3.533293E+00   4.049240E+00   1.540234E+01   4.785469E+00   6.929751E+00   4.806938E+00   2.878983E+00   5.910882E+00   2.637249E+00   4.999336E+00   8.427005E+00   1.157980E+01   1.299495E+00   8.741930E+00   5.353657E+00   1.858685E+00   5.877054E+00   9.130055E+00   6.476121E-01   6.715182E+00   6.201140E-01   2.609534E+00   5.926122E+00   1.071424E+00   1.870035E+00   4.535178E+00   2.228892E-01   3.741558E+00   2.280531E+00   2.150430E-01   6.150951E-01   2.140713E+00   8.979223E-01   2.008448E+00   1.447090E+01   2.069309E+00   9.008824E-01   8.468596E+00   2.109492E-01   1.142242E+00   2.756898E+00   4.524630E+00   2.012701E+00   3.325995E+00   9.241440E+00   7.517343E-01   1.450124E+01   3.024434E-01   5.967333E-01   6.632225E+00   4.522233E+00   3.452554E+00   3.958605E+00   9.512237E-01   1.258777E+00   7.421869E+00   1.078317E+00   4.215266E+00   1.005563E+01   2.484052E-01   4.264319E+00   8.172419E+00   6.881663E+00   4.131815E+00   1.385852E+01   1.032222E+01   4.203069E+00   2.011189E+00   1.420435E+00   2.391165E+00   7.408584E+00   9.808106E-01   2.479149E+00   3.673316E+00   1.278195E+00   2.497985E-01   6.165383E+00   9.265747E-01   2.433862E+00   6.953834E+00   1.278619E+01   3.263251E-01   4.902770E+00   6.897853E-01   5.223773E-01   1.394422E+01   8.224805E+00   3.880576E-01   1.273156E+01   8.303128E-01   1.942152E+00   1.957387E-01   7.546966E-01   9.588289E-01   6.441383E+00   5.909160E-01   1.654843E+00   1.278749E+01   2.416900E+00   1.332094E+00   4.989009E+00   8.755220E-01   1.048791E+00   3.583210E+00   6.096212E-01   2.774691E+00   6.431985E-01   5.932640E-01   4.214899E+00   6.167432E+00   7.807238E+00   3.708625E+00   1.366905E+01   1.447972E+00   4.543938E+00   5.305632E+00   2.034577E-01   2.012640E-01   4.027193E+00   9.527192E+00   4.783413E+00   3.143008E-01   1.008514E+01   4.618286E+00   4.502741E+00   5.463773E-01   3.504455E+00   8.830214E-01   2.105227E-01   1.980827E+00   1.149258E+01   1.994963E+01   3.589566E+00   1.705892E+00   2.466357E+00   2.539870E+00   8.237062E+00   4.391432E-01   4.937198E+00   5.946186E+00   6.915879E+00   3.137167E+00   2.861674E+00   7.469688E-01   1.724640E+00   2.543953E+00   7.942498E-01   2.857503E+00   1.076569E+01   1.611721E+01   9.949765E-01   6.952093E+00   1.579238E+00   1.661671E+00   7.205108E-01   9.146923E+00   4.706710E-01   3.703164E+00   5.495586E-01   4.042149E+00   8.995421E+00   2.313145E-01   4.852230E+00   6.972126E+00   1.463554E+00   3.988283E+00   9.034523E+00   1.705462E+01   5.201189E-01   6.791765E+00   5.357930E-01   3.295191E+00   7.285377E+00   1.740420E+00   2.953575E+00   5.866270E+00   7.837458E+00   1.358542E+00   1.151390E+01   5.655745E+00   1.708528E+00   3.044882E+00   5.821406E-01   7.516937E-01   9.973124E+00   1.987236E-01   2.126227E+00   2.434827E+00   6.404040E-01   3.794625E+00   1.836156E+00   5.509737E-01   3.009640E+00   2.160077E+00   8.161058E+00   1.235168E+00   5.476873E+00   2.497973E+00   3.364690E+00   1.085486E+01   4.080395E+00   2.528196E+00   4.432873E+00   1.336136E+00   4.947576E+00   2.958890E+00   5.941305E-01   4.995397E+00   1.465044E+01   7.558613E-01   3.033334E-01   9.513729E+00   3.247619E-01   3.970341E+00   1.458298E+01   3.154220E-01   4.565839E+00   9.502014E+00   5.699124E+00   4.787942E+00   1.378140E+01   2.200392E-01   7.095189E-01   1.073411E+01   7.164435E+00   1.048019E+00   5.449863E+00   8.197492E-01   2.806897E-01   4.712020E+00   2.038252E-01   5.677424E-01   5.974356E+00   1.463540E+01   4.720712E+00   5.106757E+00   5.510828E-01   2.054933E-01   3.671086E+00   3.426194E-01   6.287169E-01   8.578305E+00   4.747475E-01   4.534567E+00   8.356628E+00   1.098337E+00   2.600868E+00   6.365459E+00   1.141309E+00   2.848039E+00   5.910512E+00   8.810088E-01   4.228082E+00   3.160646E+00   2.205553E+00   2.691146E+00   3.079678E+00   1.524771E+01   4.003413E-01   1.204802E+00   1.364927E+00   1.058745E+00   4.373880E-01   7.439604E-01   3.555208E+00   5.058135E+00   4.543413E+00   4.070052E-01   1.456774E+01   1.444604E+00   3.606565E+00   1.386185E+01   3.178620E+00   1.029493E+00   1.075952E+00   2.349598E-01   4.590962E+00   1.314002E+01   1.146524E+00   7.718334E-01   5.403049E+00   2.012858E-01   4.695521E+00   6.933764E+00   1.271113E+00   8.140039E-01   6.552749E+00   5.325578E+00   2.215892E+00   3.607187E+00   5.813070E-01   1.353992E+00   3.261422E+00   1.391179E+01   3.556772E-01   4.119369E+00   5.803801E-01   4.887127E+00   8.540364E+00   5.648649E+00   4.746544E+00   5.359475E+00   5.942450E-01   2.569972E+00   7.161905E+00   6.144863E-01   1.325994E+00   4.853557E+00   6.920240E-01   4.319449E+00   2.548982E+00   5.770646E-01   4.236391E+00   6.041368E+00   5.854495E-01   1.147819E+00   4.724963E+00   1.265030E+00   6.119155E-01   9.291174E+00   7.347493E-01   6.502385E-01   9.342281E+00   1.258126E+01   2.326480E+00   1.472512E+01   9.207523E-01   4.989784E+00   6.907127E+00   2.778679E+00   1.848645E+00   2.531423E-01   1.101414E+00   1.193140E+00   5.285142E+00   4.138665E+00   1.813341E+00   3.925956E-01   1.190630E+00   4.417699E-01   1.109489E+01   1.117067E+01   4.310871E+00   4.622225E+00   7.290291E-01   3.011034E+00   6.020399E+00   3.471510E+00   4.749759E+00   7.715435E+00   1.293964E+01   4.103550E+00   6.267014E+00   1.230437E+00   2.193485E+00   5.824109E+00   5.411330E-01   2.832179E+00   5.621222E+00   1.193588E+00   8.446590E-01   1.173015E+01   1.214803E+00   1.038149E+00   1.233143E+01   3.824795E-01   3.597122E+00   8.675750E+00   1.492899E+01   3.805739E+00   5.541136E+00   1.327127E+00   1.810377E+00   1.305499E+01   1.713791E+01   4.838876E+00   1.485073E+00   1.382103E+00   5.551330E-01   8.335111E+00   2.806944E+00   7.438177E-01   7.572474E+00   2.302004E+00   4.533704E+00   1.133476E+01   4.789091E-01   3.998463E+00   8.006035E+00   1.542664E+00   3.480974E+00   5.955303E+00   3.174576E+00   2.328931E+00   4.388878E+00   1.982199E-01   8.228949E-01   6.786193E+00   2.258251E-01   1.025767E+00   1.098866E+01   3.193382E-01   3.212837E+00   2.066189E+00   9.193355E-01  
[...]
<PointData Scalars="Diameter" Vectors="Velocity">
<DataArray type="Float32" Name="Diameter" format="ascii">
  4.000000E-01   4.000000E-01   4.000000E-01   4.000000E-01   4.000000E-01   4.000000E-01   4.000000E-01   4.000000E-01   4.000000E-01   4.000000E-01   4.000000E-01   4.000000E-01   4.000000E-01   4.000000E-01   4.000000E-01   4.000000E-01   4.000000E-01   4.000000E-01   4.000000E-01   4.000000E-01   4.000000E-01   4.000000E-01   4.000000E-01   4.000000E-01   4.000000E-01   4.000000E-01   4.000000E-01   4.000000E-01   4.000000E-01   4.000000E-01   4.000000E-01   4.000000E-01   4.000000E-01   4.000000E-01   4.000000E-01   4.000000E-01   4.000000E-01   4.000000E-01   4.000000E-01   4.000000E-01   4.000000E-01   4.000000E-01   4.000000E-01   4.000000E-01   4.000000E-01   4.000000E-01   4.000000E-01   4.000000E-01   4.000000E-01   4.000000E-01   4.000000E-01   4.000000E-01   4.000000E-01   4.000000E-01   4.000000E-01   4.000000E-01   4.000000E-01   4.000000E-01   4.000000E-01   4.000000E-01   4.000000E-01   4.000000E-01   4.000000E-01   4.000000E-01   4.000000E-01   4.000000E-01   4.000000E-01   4.000000E-01   4.000000E-01   4.000000E-01   4.000000E-01   4.000000E-01   4.000000E-01   4.000000E-01   4.000000E-01   4.000000E-01   4.000000E-01   4.000000E-01   4.000000E-01   4.000000E-01   4.000000E-01   4.000000E-01   4.000000E-01   4.000000E-01   4.000000E-01   4.000000E-01   4.000000E-01   4.000000E-01   4.000000E-01   4.000000E-01   4.000000E-01   4.000000E-01   4.000000E-01   4.000000E-01   4.000000E-01   4.000000E-01   4.000000E-01   4.000000E-01   4.000000E-01   4.000000E-01   4.000000E-01   4.000000E-01   4.000000E-01   4.000000E-01   4.000000E-01   4.000000E-01   4.000000E-01   4.000000E-01   4.000000E-01   4.000000E-01   4.000000E-01   4.000000E-01   4.000000E-01   4.000000E-01   4.000000E-01   4.000000E-01   4.000000E-01   4.000000E-01   4.000000E-01   4.000000E-01   4.000000E-01   4.000000E-01   4.000000E-01   4.000000E-01   4.000000E-01   4.000000E-01   4.000000E-01   4.000000E-01   4.000000E-01   4.000000E-01   4.000000E-01   4.000000E-01   4.000000E-01   4.000000E-01   4.000000E-01   4.000000E-01   4.000000E-01   4.000000E-01   4.000000E-01   4.000000E-01   4.000000E-01   4.000000E-01   4.000000E-01   4.000000E-01   4.000000E-01   4.000000E-01   4.000000E-01   4.000000E-01   4.000000E-01   4.000000E-01   4.000000E-01   4.000000E-01   4.000000E-01   4.000000E-01   4.000000E-01   4.000000E-01   4.000000E-01   4.000000E-01   4.000000E-01   4.000000E-01   4.000000E-01   4.000000E-01   4.000000E-01   4.000000E-01   4.000000E-01   4.000000E-01   4.000000E-01   4.000000E-01   4.000000E-01   4.000000E-01   4.000000E-01   4.000000E-01   4.000000E-01   4.000000E-01   4.000000E-01   4.000000E-01   4.000000E-01   4.000000E-01   4.000000E-01   4.000000E-01   4.000000E-01   4.000000E-01   4.000000E-01   4.000000E-01   4.000000E-01   4.000000E-01   4.000000E-01   4.000000E-01   4.000000E-01   4.000000E-01   4.000000E-01   4.000000E-01   4.000000E-01   4.000000E-01   4.000000E-01   4.000000E-01   4.000000E-01   4.000000E-01   4.000000E-01   4.000000E-01   4.000000E-01   4.000000E-01   4.000000E-01   4.000000E-01   4.000000E-01   4.000000E-01   4.000000E-01   4.000000E-01   4.000000E-01   4.000000E-01   4.000000E-01   4.000000E-01   4.000000E-01   4.000000E-01   4.000000E-01   4.000000E-01   4.000000E-01   4.000000E-01   4.000000E-01   4.000000E-01   4.000000E-01   4.000000E-01   4.000000E-01   4.000000E-01   4.000000E-01   4.000000E-01   4.000000E-01   4.000000E-01   4.000000E-01   4.000000E-01   4.000000E-01   4.000000E-01   4.000000E-01   4.000000E-01   4.000000E-01   4.000000E-01   4.000000E-01   4.000000E-01   4.000000E-01   4.000000E-01   4.000000E-01   4.000000E-01   4.000000E-01   4.000000E-01   4.000000E-01   4.000000E-01   4.000000E-01   4.000000E-01   4.000000E-01   4.000000E-01   4.000000E-01   4.000000E-01   4.000000E-01   4.000000E-01   4.000000E-01   4.000000E-01   4.000000E-01   4.000000E-01   4.000000E-01   4.000000E-01   4.000000E-01   4.000000E-01   4.000000E-01   4.000000E-01   4.000000E-01   4.000000E-01   4.000000E-01   4.000000E-01   4.000000E-01   4.000000E-01   4.000000E-01   4.000000E-01   4.000000E-01   4.000000E-01   4.000000E-01   4.000000E-01   4.000000E-01   4.000000E-01   4.000000E-01   4.000000E-01   4.000000E-01   4.000000E-01   4.000000E-01   4.000000E-01   4.000000E-01   4.000000E-01   4.000000E-01   4.000000E-01   4.000000E-01   4.000000E-01   4.000000E-01   4.000000E-01   4.000000E-01   4.000000E-01   4.000000E-01   4.000000E-01   4.000000E-01   4.000000E-01   4.000000E-01   4.000000E-01   4.000000E-01   4.000000E-01   4.000000E-01   4.000000E-01   4.000000E-01   4.000000E-01   4.000000E-01   4.000000E-01   4.000000E-01   4.000000E-01   4.000000E-01   4.000000E-01   4.000000E-01   4.000000E-01   4.000000E-01   4.000000E-01   4.000000E-01   4.000000E-01   4.000000E-01   4.000000E-01   4.000000E-01   4.000000E-01   4.000000E-01   4.000000E-01   4.000000E-01   4.000000E-01   4.000000E-01   4.000000E-01   4.000000E-01   4.000000E-01   4.000000E-01   4.000000E-01   4.000000E-01   4.000000E-01   4.000000E-01   4.000000E-01   4.000000E-01   4.000000E-01   4.000000E-01   4.000000E-01   4.000000E-01   4.000000E-01   4.000000E-01   4.000000E-01   4.000000E-01   4.000000E-01   4.000000E-01   4.000000E-01   4.000000E-01   4.000000E-01   4.000000E-01   4.000000E-01   4.000000E-01   4.000000E-01   4.000000E-01   4.000000E-01   4.000000E-01   4.000000E-01   4.000000E-01   4.000000E-01   4.000000E-01   4.000000E-01   4.000000E-01   4.000000E-01   4.000000E-01   4.000000E-01   4.000000E-01   4.000000E-01   4.000000E-01   4.000000E-01   4.000000E-01   4.000000E-01   4.000000E-01   4.000000E-01   4.000000E-01   4.000000E-01   4.000000E-01   4.000000E-01   4.000000E-01   4.000000E-01   4.000000E-01   4.000000E-01   4.000000E-01   4.000000E-01   4.000000E-01   4.000000E-01   4.000000E-01   4.000000E-01   4.000000E-01   4.000000E-01   4.000000E-01   4.000000E-01   4.000000E-01   4.000000E-01   4.000000E-01   4.000000E-01   4.000000E-01   4.000000E-01   4.000000E-01   4.000000E-01   4.000000E-01   4.000000E-01   4.000000E-01   4.000000E-01   4.000000E-01   4.000000E-01   4.000000E-01   4.000000E-01   4.000000E-01   4.000000E-01   4.000000E-01   4.000000E-01   4.000000E-01   4.000000E-01   4.000000E-01   4.000000E-01   4.000000E-01   4.000000E-01   4.000000E-01   4.000000E-01   4.000000E-01   4.000000E-01   4.000000E-01   4.000000E-01   4.000000E-01   4.000000E-01   4.000000E-01   4.000000E-01   4.000000E-01   4.000000E-01   4.000000E-01   4.000000E-01   4.000000E-01   4.000000E-01   4.000000E-01   4.000000E-01   4.000000E-01   4.000000E-01   4.000000E-01   4.000000E-01   4.000000E-01   4.000000E-01   4.000000E-01   4.000000E-01   4.000000E-01   4.000000E-01   4.000000E-01   4.000000E-01   4.000000E-01   4.000000E-01   4.000000E-01   4.000000E-01   4.000000E-01   4.000000E-01   4.000000E-01   4.000000E-01   4.000000E-01   4.000000E-01   4.000000E-01   4.000000E-01   4.000000E-01   4.000000E-01   4.000000E-01   4.000000E-01   4.000000E-01   4.000000E-01   4.000000E-01   4.000000E-01   4.000000E-01   4.000000E-01   4.000000E-01   4.000000E-01   4.000000E-01   4.000000E-01   4.000000E-01   4.000000E-01   4.000000E-01   4.000000E-01   4.000000E-01   4.000000E-01   4.000000E-01   4.000000E-01   4.000000E-01   4.000000E-01   4.000000E-01   4.000000E-01   4.000000E-01   4.000000E-01   4.000000E-01   4.000000E-01   4.000000E-01   4.000000E-01   4.000000E-01   4.000000E-01   4.000000E-01   4.000000E-01   4.000000E-01   4.000000E-01   4.000000E-01   4.000000E-01   4.000000E-01   4.000000E-01   4.000000E-01   4.000000E-01   4.000000E-01   4.000000E-01   4.000000E-01   4.000000E-01   4.000000E-01   4.000000E-01   4.000000E-01   4.000000E-01   4.000000E-01   4.000000E-01   4.000000E-01   4.000000E-01   4.000000E-01   4.000000E-01   4.000000E-01   4.000000E-01   4.000000E-01   4.000000E-01   4.000000E-01   4.000000E-01   4.000000E-01   4.000000E-01   4.000000E-01   4.000000E-01   4.000000E-01   4.000000E-01   4.000000E-01   4.000000E-01   4.000000E-01   4.000000E-01   4.000000E-01   4.000000E-01   4.000000E-01   4.000000E-01   4.000000E-01   4.000000E-01   4.000000E-01   4.000000E-01   4.000000E-01   4.000000E-01   4.000000E-01   4.000000E-01   4.000000E-01   4.000000E-01   4.000000E-01   4.000000E-01   4.000000E-01   4.000000E-01   4.000000E-01   4.000000E-01   4.000000E-01   4.000000E-01   4.000000E-01   4.000000E-01   4.000000E-01   4.000000E-01   4.000000E-01   4.000000E-01   4.000000E-01   4.000000E-01   4.000000E-01   4.000000E-01   4.000000E-01   4.000000E-01   4.000000E-01   4.000000E-01   4.000000E-01   4.000000E-01   4.000000E-01   4.000000E-01   4.000000E-01   4.000000E-01   4.000000E-01   4.000000E-01   4.000000E-01   4.000000E-01   4.000000E-01   4.000000E-01   4.000000E-01   4.000000E-01   4.000000E-01   4.000000E-01   4.000000E-01   4.000000E-01   4.000000E-01   4.000000E-01   4.000000E-01   4.000000E-01   4.000000E-01   4.000000E-01   4.000000E-01   4.000000E-01   4.000000E-01   4.000000E-01   4.000000E-01   4.000000E-01   4.000000E-01   4.000000E-01   4.000000E-01   4.000000E-01   4.000000E-01   4.000000E-01   4.000000E-01   4.000000E-01   4.000000E-01   4.000000E-01   4.000000E-01   4.000000E-01   4.000000E-01   4.000000E-01   4.000000E-01   4.000000E-01   4.000000E-01   4.000000E-01   4.000000E-01   4.000000E-01   4.000000E-01   4.000000E-01   4.000000E-01   4.000000E-01   4.000000E-01   4.000000E-01   4.000000E-01   4.000000E-01   4.000000E-01   4.000000E-01   4.000000E-01   4.000000E-01   4.000000E-01   4.000000E-01   4.000000E-01   4.000000E-01   4.000000E-01   4.000000E-01   4.000000E-01   4.000000E-01   4.000000E-01   4.000000E-01   4.000000E-01   4.000000E-01   4.000000E-01   4.000000E-01   4.000000E-01   4.000000E-01   4.000000E-01   4.000000E-01   4.000000E-01   4.000000E-01   4.000000E-01   4.000000E-01   4.000000E-01   4.000000E-01   4.000000E-01   4.000000E-01   4.000000E-01   4.000000E-01   4.000000E-01   4.000000E-01   4.000000E-01   4.000000E-01   4.000000E-01   4.000000E-01   4.000000E-01   4.000000E-01   4.000000E-01   4.000000E-01   4.000000E-01   4.000000E-01   4.000000E-01   4.000000E-01   4.000000E-01   4.000000E-01   4.000000E-01   4.000000E-01   4.000000E-01   4.000000E-01   4.000000E-01   4.000000E-01   4.000000E-01   4.000000E-01   4.000000E-01   4.000000E-01   4.000000E-01   4.000000E-01   4.000000E-01   4.000000E-01   4.000000E-01   4.000000E-01   4.000000E-01   4.000000E-01   4.000000E-01   4.000000E-01   4.000000E-01   4.000000E-01   4.000000E-01   4.000000E-01   4.000000E-01   4.000000E-01   4.000000E-01   4.000000E-01   4.000000E-01   4.000000E-01   4.000000E-01   4.000000E-01   4.000000E-01   4.000000E-01   4.000000E-01   4.000000E-01   4.000000E-01   4.000000E-01   4.000000E-01   4.000000E-01   4.000000E-01   4.000000E-01   4.000000E-01   4.000000E-01   4.000000E-01   4.000000E-01   4.000000E-01   4.000000E-01   4.000000E-01   4.000000E-01   4.000000E-01   4.000000E-01   4.000000E-01   4.000000E-01   4.000000E-01   4.000000E-01   4.000000E-01   4.000000E-01   4.000000E-01   4.000000E-01   4.000000E-01   4.000000E-01   4.000000E-01   4.000000E-01   4.000000E-01   4.000000E-01   4.000000E-01   4.000000E-01   4.000000E-01   4.000000E-01   4.000000E-01   4.000000E-01   4.000000E-01   4.000000E-01   4.000000E-01   4.000000E-01   4.000000E-01   4.000000E-01   4.000000E-01   4.000000E-01   4.000000E-01   4.000000E-01   4.000000E-01   4.000000E-01   4.000000E-01   4.000000E-01   4.000000E-01   4.000000E-01   4.000000E-01   4.000000E-01   4.000000E-01   4.000000E-01   4.000000E-01   4.000000E-01   4.000000E-01   4.000000E-01   4.000000E-01   4.000000E-01   4.000000E-01   4.000000E-01   4.000000E-01   4.000000E-01   4.000000E-01   4.000000E-01   4.000000E-01   4.000000E-01   4.000000E-01   4.000000E-01   4.000000E-01   4.000000E-01   4.000000E-01   4.000000E-01   4.000000E-01   4.000000E-01   4.000000E-01   4.000000E-01   4.000000E-01   4.000000E-01   4.000000E-01   4.000000E-01   4.000000E-01   4.000000E-01   4.000000E-01   4.000000E-01   4.000000E-01   4.000000E-01   4.000000E-01   4.000000E-01   4.000000E-01   4.000000E-01   4.000000E-01   4.000000E-01   4.000000E-01   4.000000E-01   4.000000E-01   4.000000E-01   4.000000E-01   4.000000E-01   4.000000E-01   4.000000E-01   4.000000E-01   4.000000E-01   4.000000E-01   4.000000E-01   4.000000E-01   4.000000E-01   4.000000E-01   4.000000E-01   4.000000E-01   4.000000E-01   4.000000E-01   4.000000E-01   4.000000E-01   4.000000E-01   4.000000E-01   4.000000E-01   4.000000E-01   4.000000E-01   4.000000E-01   4.000000E-01   4.000000E-01   4.000000E-01   4.000000E-01   4.000000E-01   4.000000E-01   4.000000E-01   4.000000E-01   4.000000E-01   4.000000E-01   4.000000E-01   4.000000E-01   4.000000E-01   4.000000E-01   4.000000E-01   4.000000E-01   4.000000E-01   4.000000E-01   4.000000E-01   4.000000E-01   4.000000E-01   4.000000E-01   4.000000E-01   4.000000E-01   4.000000E-01   4.000000E-01   4.000000E-01   4.000000E-01   4.000000E-01   4.000000E-01   4.000000E-01   4.000000E-01   4.000000E-01   4.000000E-01   4.000000E-01   4.000000E-01   4.000000E-01   4.000000E-01   4.000000E-01   4.000000E-01   4.000000E-01   4.000000E-01   4.000000E-01   4.000000E-01   4.000000E-01   4.000000E-01   4.000000E-01   4.000000E-01   4.000000E-01   4.000000E-01   4.000000E-01   4.000000E-01   4.000000E-01   4.000000E-01   4.000000E-01   4.000000E-01   4.000000E-01   4.000000E-01   4.000000E-01   4.000000E-01   4.000000E-01   4.000000E-01   4.000000E-01   4.000000E-01   4.000000E-01   4.000000E-01   4.000000E-01   4.000000E-01   4.000000E-01   4.000000E-01   4.000000E-01   4.000000E-01   4.000000E-01   4.000000E-01   4.000000E-01   4.000000E-01   4.000000E-01   4.000000E-01   4.000000E-01   4.000000E-01   4.000000E-01   4.000000E-01   4.000000E-01   4.000000E-01   4.000000E-01   4.000000E-01   4.000000E-01   4.000000E-01   4.000000E-01   4.000000E-01   4.000000E-01   4.000000E-01   4.000000E-01   4.000000E-01   4.000000E-01   4.000000E-01   4.000000E-01   4.000000E-01   4.000000E-01   4.000000E-01   4.000000E-01   4.000000E-01   4.000000E-01   4.000000E-01   4.000000E-01   4.000000E-01   4.000000E-01   4.000000E-01   4.000000E-01   4.000000E-01   4.000000E-01   4.000000E-01   4.000000E-01   4.000000E-01   4.000000E-01   4.000000E-01   4.000000E-01   4.000000E-01   4.000000E-01   4.000000E-01   4.000000E-01   4.000000E-01   4.000000E-01   4.000000E-01   4.000000E-01   4.000000E-01   4.000000E-01   4.000000E-01   4.000000E-01   4.000000E-01   4.000000E-01   4.000000E-01   4.000000E-01   4.000000E-01   4.000000E-01   4.000000E-01   4.000000E-01   4.000000E-01   4.000000E-01   4.000000E-01   4.000000E-01   4.000000E-01   4.000000E-01   4.000000E-01   4.000000E-01   4.000000E-01   4.000000E-01   4.000000E-01   4.000000E-01   4.000000E-01   4.000000E-01   4.000000E-01   4.000000E-01   4.000000E-01   4.000000E-01   4.000000E-01   4.000000E-01   4.000000E-01   4.000000E-01   4.000000E-01   4.000000E-01   4.000000E-01   4.000000E-01   4.000000E-01   4.000000E-01   4.000000E-01   4.000000E-01   4.000000E-01   4.000000E-01   4.000000E-01   4.000000E-01   4.000000E-01   4.000000E-01   4.000000E-01   4.000000E-01   4.000000E-01   4.000000E-01   4.000000E-01   4.000000E-01   4.000000E-01   4.000000E-01   4.000000E-01   4.000000E-01   4.000000E-01   4.000000E-01   4.000000E-01   4.000000E-01   4.000000E-01   4.000000E-01   4.000000E-01   4.000000E-01   4.000000E-01   4.000000E-01   4.000000E-01   4.000000E-01   4.000000E-01   4.000000E-01   4.000000E-01   4.000000E-01   4.000000E-01   4.000000E-01   4.000000E-01   4.000000E-01   4.000000E-01   4.000000E-01   4.000000E-01   4.000000E-01   4.000000E-01   4.000000E-01   4.000000E-01   4.000000E-01   4.000000E-01   4.000000E-01   4.000000E-01   4.000000E-01   4.000000E-01   4.000000E-01   4.000000E-01   4.000000E-01   4.000000E-01   4.000000E-01   4.000000E-01   4.000000E-01   4.000000E-01   4.000000E-01   4.000000E-01   4.000000E-01   4.000000E-01   4.000000E-01   4.000000E-01   4.000000E-01   4.000000E-01   4.000000E-01   4.000000E-01   4.000000E-01   4.000000E-01   4.000000E-01   4.000000E-01   4.000000E-01   4.000000E-01   4.000000E-01   4.000000E-01   4.000000E-01   4.000000E-01   4.000000E-01   4.000000E-01   4.000000E-01   4.000000E-01   4.000000E-01   4.000000E-01   4.000000E-01   4.000000E-01   4.000000E-01   4.000000E-01   4.000000E-01   4.000000E-01   4.000000E-01   4.000000E-01   4.000000E-01   4.000000E-01   4.000000E-01   4.000000E-01   4.000000E-01   4.000000E-01   4.000000E-01   4.000000E-01   4.000000E-01   4.000000E-01   4.000000E-01   4.000000E-01   4.000000E-01   4.000000E-01   4.000000E-01   4.000000E-01   4.000000E-01   4.000000E-01   4.000000E-01   4.000000E-01   4.000000E-01   4.000000E-01   4.000000E-01   4.000000E-01   4.000000E-01   4.000000E-01   4.000000E-01   4.000000E-01   4.000000E-01   4.000000E-01   4.000000E-01   4.000000E-01   4.000000E-01   4.000000E-01   4.000000E-01   4.000000E-01   4.000000E-01   4.000000E-01   4.000000E-01   4.000000E-01   4.000000E-01   4.000000E-01   4.000000E-01   4.000000E-01   4.000000E-01   4.000000E-01   4.000000E-01   4.000000E-01   4.000000E-01   4.000000E-01   4.000000E-01   4.000000E-01   4.000000E-01   4.000000E-01   4.000000E-01   4.000000E-01   4.000000E-01   4.000000E-01   4.000000E-01   4.000000E-01   4.000000E-01   4.000000E-01   4.000000E-01   4.000000E-01   4.000000E-01   4.000000E-01   4.000000E-01   4.000000E-01   4.000000E-01   4.000000E-01   4.000000E-01   4.000000E-01   4.000000E-01   4.000000E-01   4.000000E-01   4.000000E-01   4.000000E-01   4.000000E-01   4.000000E-01   4.000000E-01   4.000000E-01   4.000000E-01   4.000000E-01   4.000000E-01   4.000000E-01   4.000000E-01   4.000000E-01   4.000000E-01   4.000000E-01   4.000000E-01   4.000000E-01   4.000000E-01   4.000000E-01   4.000000E-01   4.000000E-01   4.000000E-01   4.000000E-01   4.000000E-01   4.000000E-01   4.000000E-01   4.000000E-01   4.000000E-01   4.000000E-01   4.000000E-01   4.000000E-01   4.000000E-01   4.000000E-01   4.000000E-01   4.000000E-01   4.000000E-01   4.000000E-01   4.000000E-01   4.000000E-01   4.000000E-01   4.000000E-01   4.000000E-01   4.000000E-01   4.000000E-01   4.000000E-01   4.000000E-01   4.000000E-01   4.000000E-01   4.000000E-01   4.000000E-01   4.000000E-01   4.000000E-01   4.000000E-01   4.000000E-01   4.000000E-01   4.000000E-01   4.000000E-01   4.000000E-01   4.000000E-01   4.000000E-01   4.000000E-01   4.000000E-01   4.000000E-01   4.000000E-01   4.000000E-01   4.000000E-01   4.000000E-01   4.000000E-01   4.000000E-01   4.000000E-01   4.000000E-01   4.000000E-01   4.000000E-01   4.000000E-01   4.000000E-01   4.000000E-01   4.000000E-01   4.000000E-01   4.000000E-01   4.000000E-01   4.000000E-01   4.000000E-01   4.000000E-01   4.000000E-01   4.000000E-01   4.000000E-01   4.000000E-01   4.000000E-01   4.000000E-01   4.000000E-01   4.000000E-01   4.000000E-01   4.000000E-01   4.000000E-01   4.000000E-01   4.000000E-01   4.000000E-01   4.000000E-01   4.000000E-01   4.000000E-01   4.000000E-01   4.000000E-01   4.000000E-01   4.000000E-01   4.000000E-01   4.000000E-01   4.000000E-01   4.000000E-01   4.000000E-01   4.000000E-01   4.000000E-01   4.000000E-01   4.000000E-01   4.000000E-01   4.000000E-01   4.000000E-01   4.000000E-01   4.000000E-01   4.000000E-01   4.000000E-01   4.000000E-01   4.000000E-01   4.000000E-01   4.000000E-01   4.000000E-01   4.000000E-01   4.000000E-01   4.000000E-01   4.000000E-01   4.000000E-01   4.000000E-01   4.000000E-01   4.000000E-01   4.000000E-01   4.000000E-01   4.000000E-01   4.000000E-01   4.000000E-01   4.000000E-01   4.000000E-01   4.000000E-01   4.000000E-01   4.000000E-01   4.000000E-01   4.000000E-01   4.000000E-01   4.000000E-01   4.000000E-01   4.000000E-01   4.000000E-01   4.000000E-01   4.000000E-01   4.000000E-01   4.000000E-01   4.000000E-01   4.000000E-01   4.000000E-01   4.000000E-01   4.000000E-01   