<?xml version="1.0"?>
<!-- Time =  7.0048362602810277E-01s -->
<VTKFile type="PolyData" version="0.1" byte_order="LittleEndian">
<PolyData>
<Piece NumberOfPoints="0000002400" NumberOfVerts="0" NumberOfLines="0" NumberOfStrips="0" NumberOfPolys="0">
<Points>
<DataArray type="Float32" Name="Position" NumberOfComponents="3" format="ascii">
  1.072523E+00   2.134658E-01   2.786880E-01   1.889885E+00   2.474398E-01   2.129189E-01   2.455775E+00   2.033674E-01   2.045841E-01   3.331610E+00   2.316979E-01   2.422169E-01   3.774759E+00   2.028979E-01   2.070180E-01   4.942511E+00   2.225046E-01   1.994655E-01   5.935470E+00   2.006056E-01   1.989461E-01   6.544154E+00   2.882540E-01   6.217364E-01   6.843847E+00   5.102028E-01   2.711292E-01   6.090519E+00   1.374150E+00   3.126391E-01   6.130251E+00   1.842222E+00   2.380391E-01   7.853028E+00   9.102008E-01   7.053688E-01   8.467123E+00   1.355392E+00   5.576642E-01   5.290101E+00   1.133133E+00   7.401074E-01   1.142033E+01   1.542072E+01   2.544531E+00   8.070668E+00   7.028609E-01   2.587815E-01   2.934422E+00   2.076789E+00   7.999545E-01   6.259363E+00   5.464281E-01   7.241559E-01   7.600471E+00   8.282331E-01   1.663116E+00   8.258988E+00   2.697264E+00   4.170910E+00   8.646691E+00   1.726596E+00   3.692303E-01   8.129611E+00   3.884350E+00   8.225048E-01   8.777466E+00   1.033598E+00   3.937772E-01   7.767765E+00   1.423738E+00   2.480241E-01   8.264319E+00   2.460700E-01   3.288709E-01   8.653617E+00   1.989355E-01   2.073759E-01   9.937443E+00   2.208546E-01   6.875158E-01   1.070536E+01   2.019838E-01   2.770748E-01   1.117732E+01   1.988431E-01   2.041348E-01   1.163503E+01   2.519541E-01   2.422061E-01   1.231004E+01   6.519268E-01   3.116936E-01   1.304474E+01   1.275349E+00   2.159644E-01   1.273061E+01   6.495516E-01   6.710141E-01   1.469940E+01   9.667709E-01   1.323450E+00   2.326019E-01   2.268431E-01   2.085524E-01   6.105288E-01   2.913506E-01   3.916818E-01   2.239999E+00   7.659723E-01   3.501130E-01   2.933309E+00   2.147515E-01   2.128056E-01   3.570104E+00   5.533158E-01   3.029237E-01   4.448715E+00   2.001592E-01   2.036524E-01   5.398235E+00   1.982649E-01   2.075657E-01   6.356153E+00   2.156103E-01   2.272725E-01   6.481837E+00   7.267550E-01   3.032983E-01   6.884560E+00   9.123710E-01   2.391346E-01   7.032596E+00   5.019999E+00   4.995610E-01   5.344980E+00   4.809909E+00   8.792989E-01   5.969680E+00   4.467630E+00   2.025364E-01   8.549129E+00   6.022349E-01   3.453656E-01   6.358597E+00   4.639219E+00   1.531638E+00   1.180484E+01   1.010240E+00   2.282489E+00   8.296887E+00   3.517943E+00   2.942257E+00   3.773131E+00   6.370510E+00   2.302382E+00   6.810956E+00   1.087408E+01   6.661278E-01   7.290150E+00   2.713373E+00   2.098363E-01   8.344450E+00   9.812977E-01   1.412607E+00   1.376502E+01   1.396863E+01   3.401235E+00   7.856506E+00   1.978346E+00   6.012207E-01   7.254928E+00   1.057748E+00   2.076911E-01   8.056327E+00   1.187152E+00   4.085900E-01   9.485743E+00   1.992519E-01   2.408309E-01   9.883665E+00   2.391849E-01   2.093688E-01   1.062700E+01   6.026316E-01   3.866584E-01   1.130419E+01   5.801630E-01   3.060785E-01   1.210678E+01   2.318379E-01   2.208373E-01   1.214493E+01   8.733615E-01   1.528672E+00   1.169318E+01   9.805497E-01   3.097558E-01   1.134274E+01   2.115725E+00   3.335665E-01   1.448592E+01   4.531535E-01   2.853014E-01   3.605010E-01   7.032419E-01   5.079595E-01   2.465290E+00   6.225304E-01   7.484269E-01   2.709348E+00   3.343676E-01   5.347095E-01   4.427056E+00   4.782812E-01   4.964610E-01   4.661789E+00   5.569080E-01   8.283787E-01   4.106564E+00   4.318784E-01   2.038929E-01   5.705652E+00   5.293316E-01   2.310104E-01   6.099427E+00   2.125940E-01   5.663568E-01   6.100344E+00   5.408375E-01   3.364452E-01   6.601341E+00   1.287447E+00   2.615596E-01   7.081769E+00   2.066392E+00   9.376220E-01   9.995779E+00   1.423227E+01   2.565704E+00   1.104669E+01   1.824915E+00   7.923036E-01   7.630209E+00   1.026697E+00   3.467825E-01   1.272651E+01   6.520196E-01   2.002761E+00   9.903553E+00   2.864249E+01   6.526158E-01   4.573055E+00   9.344504E-01   2.173980E+00   4.822611E+00   8.642156E-01   1.285174E+00   6.391751E+00   8.912551E-01   1.003008E+00   1.013084E+01   1.432312E+00   6.958023E-01   7.823148E+00   1.616074E+00   9.768134E-01   3.428454E+00   8.799919E+00   1.136762E+00   1.269063E+01   7.887360E+00   3.529478E-01   7.436888E+00   4.100636E+00   5.351431E-01   7.725505E+00   4.773585E-01   3.969682E-01   9.076963E+00   2.579347E-01   2.310267E-01   9.509603E+00   5.417019E-01   4.422211E-01   1.030650E+01   2.293237E-01   2.016312E-01   1.041460E+01   2.083722E+00   3.805209E-01   1.188302E+01   5.708951E-01   3.472505E-01   1.285492E+01   5.011082E-01   1.250692E+00   1.134585E+01   5.692267E-01   7.905250E-01   1.288272E+01   1.031894E+00   1.126187E+00   1.440523E+01   1.727525E+00   3.332359E-01   1.997398E-01   4.809480E-01   1.364240E+00   2.218611E+00   3.240672E-01   5.618822E-01   3.075872E+00   2.070128E-01   6.606840E-01   3.652681E+00   1.985317E-01   5.903989E-01   4.064678E+00   2.020153E-01   5.285842E-01   5.165710E+00   2.015510E-01   5.608826E-01   5.672200E+00   1.998102E-01   5.005717E-01   6.929420E+00   8.254926E-01   9.430289E-01   8.167509E+00   3.663865E+00   2.131740E-01   5.159583E+00   7.327955E+00   1.379456E+00   8.711378E+00   8.279316E+00   2.013545E+00   2.999661E+00   6.647779E-01   3.110690E+00   1.116399E+01   1.225995E+01   3.104527E+00   1.085329E+01   5.994497E+00   1.764389E+00   5.650643E+00   4.426970E+00   1.633617E+00   5.192476E+00   8.776552E-01   4.418617E-01   6.247535E+00   1.853033E+00   9.281811E-01   1.752666E+00   6.835085E+00   2.564289E+00   8.390583E+00   1.893028E+01   2.710801E+00   1.953685E+00   8.018294E+00   4.163635E+00   4.526832E+00   1.192925E+01   3.258821E+00   1.456346E+01   5.655291E+00   3.209089E+00   6.400063E+00   1.081839E+00   1.847261E+00   1.081260E+01   1.062738E+01   3.207088E+00   5.080681E+00   2.914252E+00   3.170937E-01   8.021624E+00   3.278214E-01   8.866534E-01   8.835878E+00   2.131566E-01   7.270820E-01   9.490514E+00   1.996303E-01   9.698466E-01   1.070893E+01   2.125369E-01   7.721283E-01   1.104803E+01   3.386502E-01   5.688682E-01   1.193666E+01   2.812389E-01   6.386648E-01   1.302186E+01   3.342893E-01   8.167643E-01   1.404303E+01   3.116327E-01   1.013375E+00   1.325415E+01   8.246061E-01   2.862251E-01   9.664961E-01   6.285610E-01   4.063247E-01   1.096481E+00   5.286454E-01   8.695488E-01   2.211773E+00   2.675994E-01   1.097116E+00   3.342809E+00   5.028221E-01   6.378317E-01   3.910266E+00   5.926670E-01   5.165349E-01   4.715542E+00   1.978457E-01   5.345510E-01   5.486888E+00   2.015020E-01   8.553906E-01   6.753273E+00   1.223266E+00   7.609558E-01   7.175699E+00   8.792111E-01   6.095331E-01   4.961505E+00   1.206303E+00   1.115375E+00   9.591886E+00   5.026136E+00   2.521034E+00   1.103575E+01   7.288099E+00   2.586734E+00   1.110067E+01   1.530743E+00   4.129614E-01   3.166331E+00   1.872332E+00   4.264320E+00   4.995731E+00   1.699533E+01   2.359447E+00   4.733421E+00   6.065919E-01   2.118942E-01   4.946843E+00   5.381081E-01   5.485445E-01   8.739431E+00   6.048060E-01   1.357443E+00   6.495138E+00   4.214952E+00   1.857352E+00   7.922050E+00   4.030272E+00   2.433029E+00   4.428763E+00   8.711811E-01   9.108002E-01   2.068105E+00   2.632461E+00   4.539301E+00   1.088961E+01   1.464950E+00   1.125320E+00   6.522099E+00   4.467341E+00   7.393287E-01   7.271065E+00   6.185562E-01   2.576199E-01   8.412776E+00   2.183909E-01   7.358455E-01   8.753248E+00   5.445686E-01   9.474831E-01   1.033746E+01   2.011879E-01   6.048906E-01   1.115911E+01   9.391452E-01   7.050605E-01   1.140145E+01   1.273686E+00   1.092277E+00   1.271204E+01   2.017558E-01   2.299204E-01   1.368352E+01   2.535242E-01   3.330181E-01   1.061134E+01   2.182302E+00   1.776410E+00   1.449487E+01   2.662082E-01   1.169429E+00   1.747733E+00   3.161551E-01   2.936445E+00   1.394169E+00   6.305107E-01   2.525320E-01   2.558788E+00   2.133257E-01   8.901127E-01   5.968471E+00   5.383417E-01   1.112535E+00   5.427406E+00   5.144391E-01   5.193331E-01   4.353389E+00   7.479688E-01   1.991445E-01   5.836825E+00   5.219287E-01   6.693733E-01   6.722707E+00   3.641175E-01   1.185514E+00   6.368523E+00   1.081662E+00   5.384850E-01   7.324957E+00   2.661530E+00   1.199769E+00   3.756528E+00   1.046478E+01   2.172720E+00   7.658280E-01   1.130172E+00   1.990110E+00   1.023291E+01   1.052291E+00   1.526206E+00   7.024484E+00   4.221013E+00   2.086967E+00   5.376885E+00   1.233387E+01   3.330552E+00   6.295572E+00   7.801640E-01   2.495591E+00   5.175051E+00   8.468232E+00   3.247832E+00   7.337359E+00   1.833660E+01   1.585755E+00   1.041339E+01   2.176167E+01   2.139106E+00   1.432582E+01   2.133825E+00   3.173288E-01   5.871587E+00   1.159649E+01   1.476894E+00   8.624394E+00   3.203083E+00   2.873765E-01   7.633915E+00   2.941964E+00   9.778955E-01   7.576214E+00   1.503365E+00   6.878324E-01   8.287343E+00   1.553832E+00   1.340571E+00   9.117190E+00   6.758314E-01   3.152356E-01   1.028988E+01   7.378363E-01   6.414212E-01   1.054052E+01   5.417429E-01   1.015189E+00   1.160938E+01   6.272323E-01   1.121192E+00   1.233778E+01   2.909606E-01   5.504531E-01   1.335297E+01   2.237515E-01   1.141145E+00   1.424973E+01   3.949381E-01   1.843402E+00   8.136864E-01   5.218214E-01   1.563956E+00   1.483675E+00   2.239769E-01   2.400675E-01   3.464614E+00   2.014154E-01   9.440945E-01   3.891331E+00   2.109629E-01   9.145118E-01   5.280661E+00   1.989252E-01   1.206087E+00   5.884781E+00   2.005781E-01   9.033473E-01   7.439764E+00   2.945442E+00   1.564772E+00   5.646226E+00   2.877477E+00   5.901322E-01   2.781901E+00   8.610043E+00   1.329164E+00   1.042647E+01   2.784465E+00   2.591911E-01   9.728821E+00   1.849827E+01   1.684894E+00   4.246887E+00   1.158916E+01   2.502624E+00   9.741154E+00   2.808065E+01  
[...]
<PointData Scalars="Diameter" Vectors="Velocity">
<DataArray type="Float32" Name="Diameter" format="ascii">
  4.000000E-01   4.000000E-01   4.000000E-01   4.000000E-01   4.000000E-01   4.000000E-01   4.000000E-01   4.000000E-01   4.000000E-01   4.000000E-01   4.000000E-01   4.000000E-01   4.000000E-01   4.000000E-01   4.000000E-01   4.000000E-01   4.000000E-01   4.000000E-01   4.000000E-01   4.000000E-01   4.000000E-01   4.000000E-01   4.000000E-01   4.000000E-01   4.000000E-01   4.000000E-01   4.000000E-01   4.000000E-01   4.000000E-01   4.000000E-01   4.000000E-01   4.000000E-01   4.000000E-01   4.000000E-01   4.000000E-01   4.000000E-01   4.000000E-01   4.000000E-01   4.000000E-01   4.000000E-01   4.000000E-01   4.000000E-01   4.000000E-01   4.000000E-01   4.000000E-01   4.000000E-01   4.000000E-01   4.000000E-01   4.000000E-01   4.000000E-01   4.000000E-01   4.000000E-01   4.000000E-01   4.000000E-01   4.000000E-01   4.000000E-01   4.000000E-01   4.000000E-01   4.000000E-01   4.000000E-01   4.000000E-01   4.000000E-01   4.000000E-01   4.000000E-01   4.000000E-01   4.000000E-01   4.000000E-01   4.000000E-01   4.000000E-01   4.000000E-01   4.000000E-01   4.000000E-01   4.000000E-01   4.000000E-01   4.000000E-01   4.000000E-01   4.000000E-01   4.000000E-01   4.000000E-01   4.000000E-01   4.000000E-01   4.000000E-01   4.000000E-01   4.000000E-01   4.000000E-01   4.000000E-01   4.000000E-01   4.000000E-01   4.000000E-01   4.000000E-01   4.000000E-01   4.000000E-01   4.000000E-01   4.000000E-01   4.000000E-01   4.000000E-01   4.000000E-01   4.000000E-01   4.000000E-01   4.000000E-01   4.000000E-01   4.000000E-01   4.000000E-01   4.000000E-01   4.000000E-01   4.000000E-01   4.000000E-01   4.000000E-01   4.000000E-01   4.000000E-01   4.000000E-01   4.000000E-01   4.000000E-01   4.000000E-01   4.000000E-01   4.000000E-01   4.000000E-01   4.000000E-01   4.000000E-01   4.000000E-01   4.000000E-01   4.000000E-01   4.000000E-01   4.000000E-01   4.000000E-01   4.000000E-01   4.000000E-01   4.000000E-01   4.000000E-01   4.000000E-01   4.000000E-01   4.000000E-01   4.000000E-01   4.000000E-01   4.000000E-01   4.000000E-01   4.000000E-01   4.000000E-01   4.000000E-01   4.000000E-01   4.000000E-01   4.000000E-01   4.000000E-01   4.000000E-01   4.000000E-01   4.000000E-01   4.000000E-01   4.000000E-01   4.000000E-01   4.000000E-01   4.000000E-01   4.000000E-01   4.000000E-01   4.000000E-01   4.000000E-01   4.000000E-01   4.000000E-01   4.000000E-01   4.000000E-01   4.000000E-01   4.000000E-01   4.000000E-01   4.000000E-01   4.000000E-01   4.000000E-01   4.000000E-01   4.000000E-01   4.000000E-01   4.000000E-01   4.000000E-01   4.000000E-01   4.000000E-01   4.000000E-01   4.000000E-01   4.000000E-01   4.000000E-01   4.000000E-01   4.000000E-01   4.000000E-01   4.000000E-01   4.000000E-01   4.000000E-01   4.000000E-01   4.000000E-01   4.000000E-01   4.000000E-01   4.000000E-01   4.000000E-01   4.000000E-01   4.000000E-01   4.000000E-01   4.000000E-01   4.000000E-01   4.000000E-01   4.000000E-01   4.000000E-01   4.000000E-01   4.000000E-01   4.000000E-01   4.000000E-01   4.000000E-01   4.000000E-01   4.000000E-01   4.000000E-01   4.000000E-01   4.000000E-01   4.000000E-01   4.000000E-01   4.000000E-01   4.000000E-01   4.000000E-01   4.000000E-01   4.000000E-01   4.000000E-01   4.000000E-01   4.000000E-01   4.000000E-01   4.000000E-01   4.000000E-01   4.000000E-01   4.000000E-01   4.000000E-01   4.000000E-01   4.000000E-01   4.000000E-01   4.000000E-01   4.000000E-01   4.000000E-01   4.000000E-01   4.000000E-01   4.000000E-01   4.000000E-01   4.000000E-01   4.000000E-01   4.000000E-01   4.000000E-01   4.000000E-01   4.000000E-01   4.000000E-01   4.000000E-01   4.000000E-01   4.000000E-01   4.000000E-01   4.000000E-01   4.000000E-01   4.000000E-01   4.000000E-01   4.000000E-01   4.000000E-01   4.000000E-01   4.000000E-01   4.000000E-01   4.000000E-01   4.000000E-01   4.000000E-01   4.000000E-01   4.000000E-01   4.000000E-01   4.000000E-01   4.000000E-01   4.000000E-01   4.000000E-01   4.000000E-01   4.000000E-01   4.000000E-01   4.000000E-01   4.000000E-01   4.000000E-01   4.000000E-01   4.000000E-01   4.000000E-01   4.000000E-01   4.000000E-01   4.000000E-01   4.000000E-01   4.000000E-01   4.000000E-01   4.000000E-01   4.000000E-01   4.000000E-01   4.000000E-01   4.000000E-01   4.000000E-01   4.000000E-01   4.000000E-01   4.000000E-01   4.000000E-01   4.000000E-01   4.000000E-01   4.000000E-01   4.000000E-01   4.000000E-01   4.000000E-01   4.000000E-01   4.000000E-01   4.000000E-01   4.000000E-01   4.000000E-01   4.000000E-01   4.000000E-01   4.000000E-01   4.000000E-01   4.000000E-01   4.000000E-01   4.000000E-01   4.000000E-01   4.000000E-01   4.000000E-01   4.000000E-01   4.000000E-01   4.000000E-01   4.000000E-01   4.000000E-01   4.000000E-01   4.000000E-01   4.000000E-01   4.000000E-01   4.000000E-01   4.000000E-01   4.000000E-01   4.000000E-01   4.000000E-01   4.000000E-01   4.000000E-01   4.000000E-01   4.000000E-01   4.000000E-01   4.000000E-01   4.000000E-01   4.000000E-01   4.000000E-01   4.000000E-01   4.000000E-01   4.000000E-01   4.000000E-01   4.000000E-01   4.000000E-01   4.000000E-01   4.000000E-01   4.000000E-01   4.000000E-01   4.000000E-01   4.000000E-01   4.000000E-01   4.000000E-01   4.000000E-01   4.000000E-01   4.000000E-01   4.000000E-01   4.000000E-01   4.000000E-01   4.000000E-01   4.000000E-01   4.000000E-01   4.000000E-01   4.000000E-01   4.000000E-01   4.000000E-01   4.000000E-01   4.000000E-01   4.000000E-01   4.000000E-01   4.000000E-01   4.000000E-01   4.000000E-01   4.000000E-01   4.000000E-01   4.000000E-01   4.000000E-01   4.000000E-01   4.000000E-01   4.000000E-01   4.000000E-01   4.000000E-01   4.000000E-01   4.000000E-01   4.000000E-01   4.000000E-01   4.000000E-01   4.000000E-01   4.000000E-01   4.000000E-01   4.000000E-01   4.000000E-01   4.000000E-01   4.000000E-01   4.000000E-01   4.000000E-01   4.000000E-01   4.000000E-01   4.000000E-01   4.000000E-01   4.000000E-01   4.000000E-01   4.000000E-01   4.000000E-01   4.000000E-01   4.000000E-01   4.000000E-01   4.000000E-01   4.000000E-01   4.000000E-01   4.000000E-01   4.000000E-01   4.000000E-01   4.000000E-01   4.000000E-01   4.000000E-01   4.000000E-01   4.000000E-01   4.000000E-01   4.000000E-01   4.000000E-01   4.000000E-01   4.000000E-01   4.000000E-01   4.000000E-01   4.000000E-01   4.000000E-01   4.000000E-01   4.000000E-01   4.000000E-01   4.000000E-01   4.000000E-01   4.000000E-01   4.000000E-01   4.000000E-01   4.000000E-01   4.000000E-01   4.000000E-01   4.000000E-01   4.000000E-01   4.000000E-01   4.000000E-01   4.000000E-01   4.000000E-01   4.000000E-01   4.000000E-01   4.000000E-01   4.000000E-01   4.000000E-01   4.000000E-01   4.000000E-01   4.000000E-01   4.000000E-01   4.000000E-01   4.000000E-01   4.000000E-01   4.000000E-01   4.000000E-01   4.000000E-01   4.000000E-01   4.000000E-01   4.000000E-01   4.000000E-01   4.000000E-01   4.000000E-01   4.000000E-01   4.000000E-01   4.000000E-01   4.000000E-01   4.000000E-01   4.000000E-01   4.000000E-01   4.000000E-01   4.000000E-01   4.000000E-01   4.000000E-01   4.000000E-01   4.000000E-01   4.000000E-01   4.000000E-01   4.000000E-01   4.000000E-01   4.000000E-01   4.000000E-01   4.000000E-01   4.000000E-01   4.000000E-01   4.000000E-01   4.000000E-01   4.000000E-01   4.000000E-01   4.000000E-01   4.000000E-01   4.000000E-01   4.000000E-01   4.000000E-01   4.000000E-01   4.000000E-01   4.000000E-01   4.000000E-01   4.000000E-01   4.000000E-01   4.000000E-01   4.000000E-01   4.000000E-01   4.000000E-01   4.000000E-01   4.000000E-01   4.000000E-01   4.000000E-01   4.000000E-01   4.000000E-01   4.000000E-01   4.000000E-01   4.000000E-01   4.000000E-01   4.000000E-01   4.000000E-01   4.000000E-01   4.000000E-01   4.000000E-01   4.000000E-01   4.000000E-01   4.000000E-01   4.000000E-01   4.000000E-01   4.000000E-01   4.000000E-01   4.000000E-01   4.000000E-01   4.000000E-01   4.000000E-01   4.000000E-01   4.000000E-01   4.000000E-01   4.000000E-01   4.000000E-01   4.000000E-01   4.000000E-01   4.000000E-01   4.000000E-01   4.000000E-01   4.000000E-01   4.000000E-01   4.000000E-01   4.000000E-01   4.000000E-01   4.000000E-01   4.000000E-01   4.000000E-01   4.000000E-01   4.000000E-01   4.000000E-01   4.000000E-01   4.000000E-01   4.000000E-01   4.000000E-01   4.000000E-01   4.000000E-01   4.000000E-01   4.000000E-01   4.000000E-01   4.000000E-01   4.000000E-01   4.000000E-01   4.000000E-01   4.000000E-01   4.000000E-01   4.000000E-01   4.000000E-01   4.000000E-01   4.000000E-01   4.000000E-01   4.000000E-01   4.000000E-01   4.000000E-01   4.000000E-01   4.000000E-01   4.000000E-01   4.000000E-01   4.000000E-01   4.000000E-01   4.000000E-01   4.000000E-01   4.000000E-01   4.000000E-01   4.000000E-01   4.000000E-01   4.000000E-01   4.000000E-01   4.000000E-01   4.000000E-01   4.000000E-01   4.000000E-01   4.000000E-01   4.000000E-01   4.000000E-01   4.000000E-01   4.000000E-01   4.000000E-01   4.000000E-01   4.000000E-01   4.000000E-01   4.000000E-01   4.000000E-01   4.000000E-01   4.000000E-01   4.000000E-01   4.000000E-01   4.000000E-01   4.000000E-01   4.000000E-01   4.000000E-01   4.000000E-01   4.000000E-01   4.000000E-01   4.000000E-01   4.000000E-01   4.000000E-01   4.000000E-01   4.000000E-01   4.000000E-01   4.000000E-01   4.000000E-01   4.000000E-01   4.000000E-01   4.000000E-01   4.000000E-01   4.000000E-01   4.000000E-01   4.000000E-01   4.000000E-01   4.000000E-01   4.000000E-01   4.000000E-01   4.000000E-01   4.000000E-01   4.000000E-01   4.000000E-01   4.000000E-01   4.000000E-01   4.000000E-01   4.000000E-01   4.000000E-01   4.000000E-01   4.000000E-01   4.000000E-01   4.000000E-01   4.000000E-01   4.000000E-01   4.000000E-01   4.000000E-01   4.000000E-01   4.000000E-01   4.000000E-01   4.000000E-01   4.000000E-01   4.000000E-01   4.000000E-01   4.000000E-01   4.000000E-01   4.000000E-01   4.000000E-01   4.000000E-01   4.000000E-01   4.000000E-01   4.000000E-01   4.000000E-01   4.000000E-01   4.000000E-01   4.000000E-01   4.000000E-01   4.000000E-01   4.000000E-01   4.000000E-01   4.000000E-01   4.000000E-01   4.000000E-01   4.000000E-01   4.000000E-01   4.000000E-01   4.000000E-01   4.000000E-01   4.000000E-01   4.000000E-01   4.000000E-01   4.000000E-01   4.000000E-01   4.000000E-01   4.000000E-01   4.000000E-01   4.000000E-01   4.000000E-01   4.000000E-01   4.000000E-01   4.000000E-01   4.000000E-01   4.000000E-01   4.000000E-01   4.000000E-01   4.000000E-01   4.000000E-01   4.000000E-01   4.000000E-01   4.000000E-01   4.000000E-01   4.000000E-01   4.000000E-01   4.000000E-01   4.000000E-01   4.000000E-01   4.000000E-01   4.000000E-01   4.000000E-01   4.000000E-01   4.000000E-01   4.000000E-01   4.000000E-01   4.000000E-01   4.000000E-01   4.000000E-01   4.000000E-01   4.000000E-01   4.000000E-01   4.000000E-01   4.000000E-01   4.000000E-01   4.000000E-01   4.000000E-01   4.000000E-01   4.000000E-01   4.000000E-01   4.000000E-01   4.000000E-01   4.000000E-01   4.000000E-01   4.000000E-01   4.000000E-01   4.000000E-01   4.000000E-01   4.000000E-01   4.000000E-01   4.000000E-01   4.000000E-01   4.000000E-01   4.000000E-01   4.000000E-01   4.000000E-01   4.000000E-01   4.000000E-01   4.000000E-01   4.000000E-01   4.000000E-01   4.000000E-01   4.000000E-01   4.000000E-01   4.000000E-01   4.000000E-01   4.000000E-01   4.000000E-01   4.000000E-01   4.000000E-01   4.000000E-01   4.000000E-01   4.000000E-01   4.000000E-01   4.000000E-01   4.000000E-01   4.000000E-01   4.000000E-01   4.000000E-01   4.000000E-01   4.000000E-01   4.000000E-01   4.000000E-01   4.000000E-01   4.000000E-01   4.000000E-01   4.000000E-01   4.000000E-01   4.000000E-01   4.000000E-01   4.000000E-01   4.000000E-01   4.000000E-01   4.000000E-01   4.000000E-01   4.000000E-01   4.000000E-01   4.000000E-01   4.000000E-01   4.000000E-01   4.000000E-01   4.000000E-01   4.000000E-01   4.000000E-01   4.000000E-01   4.000000E-01   4.000000E-01   4.000000E-01   4.000000E-01   4.000000E-01   4.000000E-01   4.000000E-01   4.000000E-01   4.000000E-01   4.000000E-01   4.000000E-01   4.000000E-01   4.000000E-01   4.000000E-01   4.000000E-01   4.000000E-01   4.000000E-01   4.000000E-01   4.000000E-01   4.000000E-01   4.000000E-01   4.000000E-01   4.000000E-01   4.000000E-01   4.000000E-01   4.000000E-01   4.000000E-01   4.000000E-01   4.000000E-01   4.000000E-01   4.000000E-01   4.000000E-01   4.000000E-01   4.000000E-01   4.000000E-01   4.000000E-01   4.000000E-01   4.000000E-01   4.000000E-01   4.000000E-01   4.000000E-01   4.000000E-01   4.000000E-01   4.000000E-01   4.000000E-01   4.000000E-01   4.000000E-01   4.000000E-01   4.000000E-01   4.000000E-01   4.000000E-01   4.000000E-01   4.000000E-01   4.000000E-01   4.000000E-01   4.000000E-01   4.000000E-01   4.000000E-01   4.000000E-01   4.000000E-01   4.000000E-01   4.000000E-01   4.000000E-01   4.000000E-01   4.000000E-01   4.000000E-01   4.000000E-01   4.000000E-01   4.000000E-01   4.000000E-01   4.000000E-01   4.000000E-01   4.000000E-01   4.000000E-01   4.000000E-01   4.000000E-01   4.000000E-01   4.000000E-01   4.000000E-01   4.000000E-01   4.000000E-01   4.000000E-01   4.000000E-01   4.000000E-01   4.000000E-01   4.000000E-01   4.000000E-01   4.000000E-01   4.000000E-01   4.000000E-01   4.000000E-01   4.000000E-01   4.000000E-01   4.000000E-01   4.000000E-01   4.000000E-01   4.000000E-01   4.000000E-01   4.000000E-01   4.000000E-01   4.000000E-01   4.000000E-01   4.000000E-01   4.000000E-01   4.000000E-01   4.000000E-01   4.000000E-01   4.000000E-01   4.000000E-01   4.000000E-01   4.000000E-01   4.000000E-01   4.000000E-01   4.000000E-01   4.000000E-01   4.000000E-01   4.000000E-01   4.000000E-01   4.000000E-01   4.000000E-01   4.000000E-01   4.000000E-01   4.000000E-01   4.000000E-01   4.000000E-01   4.000000E-01   4.000000E-01   4.000000E-01   4.000000E-01   4.000000E-01   4.000000E-01   4.000000E-01   4.000000E-01   4.000000E-01   4.000000E-01   4.000000E-01   4.000000E-01   4.000000E-01   4.000000E-01   4.000000E-01   4.000000E-01   4.000000E-01   4.000000E-01   4.000000E-01   4.000000E-01   4.000000E-01   4.000000E-01   4.000000E-01   4.000000E-01   4.000000E-01   4.000000E-01   4.000000E-01   4.000000E-01   4.000000E-01   4.000000E-01   4.000000E-01   4.000000E-01   4.000000E-01   4.000000E-01   4.000000E-01   4.000000E-01   4.000000E-01   4.000000E-01   4.000000E-01   4.000000E-01   4.000000E-01   4.000000E-01   4.000000E-01   4.000000E-01   4.000000E-01   4.000000E-01   4.000000E-01   4.000000E-01   4.000000E-01   4.000000E-01   4.000000E-01   4.000000E-01   4.000000E-01   4.000000E-01   4.000000E-01   4.000000E-01   4.000000E-01   4.000000E-01   4.000000E-01   4.000000E-01   4.000000E-01   4.000000E-01   4.000000E-01   4.000000E-01   4.000000E-01   4.000000E-01   4.000000E-01   4.000000E-01   4.000000E-01   4.000000E-01   4.000000E-01   4.000000E-01   4.000000E-01   4.000000E-01   4.000000E-01   4.000000E-01   4.000000E-01   4.000000E-01   4.000000E-01   4.000000E-01   4.000000E-01   4.000000E-01   4.000000E-01   4.000000E-01   4.000000E-01   4.000000E-01   4.000000E-01   4.000000E-01   4.000000E-01   4.000000E-01   4.000000E-01   4.000000E-01   4.000000E-01   4.000000E-01   4.000000E-01   4.000000E-01   4.000000E-01   4.000000E-01   4.000000E-01   4.000000E-01   4.000000E-01   4.000000E-01   4.000000E-01   4.000000E-01   4.000000E-01   4.000000E-01   4.000000E-01   4.000000E-01   4.000000E-01   4.000000E-01   4.000000E-01   4.000000E-01   4.000000E-01   4.000000E-01   4.000000E-01   4.000000E-01   4.000000E-01   4.000000E-01   4.000000E-01   4.000000E-01   4.000000E-01   4.000000E-01   4.000000E-01   4.000000E-01   4.000000E-01   4.000000E-01   4.000000E-01   4.000000E-01   4.000000E-01   4.000000E-01   4.000000E-01   4.000000E-01   4.000000E-01   4.000000E-01   4.000000E-01   4.000000E-01   4.000000E-01   4.000000E-01   4.000000E-01   4.000000E-01   4.000000E-01   4.000000E-01   4.000000E-01   4.000000E-01   4.000000E-01   4.000000E-01   4.000000E-01   4.000000E-01   4.000000E-01   4.000000E-01   4.000000E-01   4.000000E-01   4.000000E-01   4.000000E-01   4.000000E-01   4.000000E-01   4.000000E-01   4.000000E-01   4.000000E-01   4.000000E-01   4.000000E-01   4.000000E-01   4.000000E-01   4.000000E-01   4.000000E-01   4.000000E-01   4.000000E-01   4.000000E-01   4.000000E-01   4.000000E-01   4.000000E-01   4.000000E-01   4.000000E-01   4.000000E-01   4.000000E-01   4.000000E-01   4.000000E-01   4.000000E-01   4.000000E-01   4.000000E-01   4.000000E-01   4.000000E-01   4.000000E-01   4.000000E-01   4.000000E-01   4.000000E-01   4.000000E-01   4.000000E-01   4.000000E-01   4.000000E-01   4.000000E-01   4.000000E-01   4.000000E-01   4.000000E-01   4.000000E-01   4.000000E-01   4.000000E-01   4.000000E-01   4.000000E-01   4.000000E-01   4.000000E-01   4.000000E-01   4.000000E-01   4.000000E-01   4.000000E-01   4.000000E-01   4.000000E-01   4.000000E-01   4.000000E-01   4.000000E-01   4.000000E-01   4.000000E-01   4.000000E-01   4.000000E-01   4.000000E-01   4.000000E-01   4.000000E-01   4.000000E-01   4.000000E-01   4.000000E-01   4.000000E-01   4.000000E-01   4.000000E-01   4.000000E-01   4.000000E-01   4.000000E-01   4.000000E-01   4.000000E-01   4.000000E-01   4.000000E-01   4.000000E-01   4.000000E-01   4.000000E-01   4.000000E-01   4.000000E-01   4.000000E-01   4.000000E-01   4.000000E-01   4.000000E-01   4.000000E-01   4.000000E-01   4.000000E-01   4.000000E-01   4.000000E-01   4.000000E-01   4.000000E-01   4.000000E-01   4.000000E-01   4.000000E-01   4.000000E-01   4.000000E-01   4.000000E-01   4.000000E-01   4.000000E-01   4.000000E-01   4.000000E-01   4.000000E-01   4.000000E-01   4.000000E-01   4.000000E-01   4.000000E-01   4.000000E-01   4.000000E-01   4.000000E-01   4.000000E-01   4.000000E-01   4.000000E-01   4.000000E-01   4.000000E-01   4.000000E-01   4.000000E-01   4.000000E-01   4.000000E-01   4.000000E-01   4.000000E-01   4.000000E-01   4.000000E-01   4.000000E-01   4.000000E-01   4.000000E-01   4.000000E-01   4.000000E-01   4.000000E-01   4.000000E-01   4.000000E-01   4.000000E-01   4.000000E-01   4.000000E-01   4.000000E-01   4.000000E-01   4.000000E-01   4.000000E-01   4.000000E-01   4.000000E-01   4.000000E-01   4.000000E-01   4.000000E-01   4.000000E-01   4.000000E-01   4.000000E-01   4.000000E-01   4.000000E-01   4.000000E-01   4.000000E-01   4.000000E-01   4.000000E-01   4.000000E-01   4.000000E-01   4.000000E-01   4.000000E-01   4.000000E-01   4.000000E-01   4.000000E-01   4.000000E-01   4.000000E-01   4.000000E-01   4.000000E-01   4.000000E-01   4.000000E-01   4.000000E-01   4.000000E-01   4.000000E-01   4.000000E-01   4.000000E-01   4.000000E-01   4.000000E-01   4.000000E-01   4.000000E-01   4.000000E-01   4.000000E-01   4.000000E-01   4.000000E-01   4.000000E-01   4.000000E-01   4.000000E-01   4.000000E-01   4.000000E-01   4.000000E-01   4.000000E-01   4.000000E-01   4.000000E-01   4.000000E-01   4.000000E-01   4.000000E-01   4.000000E-01   4.000000E-01   4.000000E-01   4.000000E-01   4.000000E-01   4.000000E-01   4.000000E-01   4.000000E-01   4.000000E-01   4.000000E-01   4.000000E-01   4.000000E-01   4.000000E-01   4.000000E-01   4.000000E-01   4.000000E-01   4.000000E-01   4.000000E-01   4.000000E-01   4.000000E-01   4.000000E-01   4.000000E-01   4.000000E-01   4.000000E-01   4.000000E-01   4.000000E-01   4.000000E-01   4.000000E-01   4.000000E-01   4.000000E-01   4.000000E-01   4.000000E-01   4.000000E-01   4.000000E-01   4.000000E-01   4.000000E-01   4.000000E-01   4.000000E-01   4.000000E-01   4.000000E-01   4.000000E-01   4.000000E-01   4.000000E-01   4.000000E-01   4.000000E-01   4.000000E-01   4.000000E-01   4.000000E-01   4.000000E-01   4.000000E-01   4.000000E-01   4.000000E-01   4.000000E-01   4.000000E-01   4.000000E-01   4.000000E-01   4.000000E-01   4.000000E-01   4.000000E-01   4.000000E-01   4.000000E-01   4.000000E-01   4.000000E-01   4.000000E-01   4.000000E-01   4.000000E-01   4.000000E-01   4.000000E-01   