<?xml version="1.0"?>
<!-- Time =  8.0018362602810311E-01s -->
<VTKFile type="PolyData" version="0.1" byte_order="LittleEndian">
<PolyData>
<Piece NumberOfPoints="0000002400" NumberOfVerts="0" NumberOfLines="0" NumberOfStrips="0" NumberOfPolys="0">
<Points>
<DataArray type="Float32" Name="Position" NumberOfComponents="3" format="ascii">
  6.260640E-01   2.885404E-01   2.017237E-01   2.227664E+00   6.276456E-01   2.608628E-01   2.231045E+00   1.999903E-01   1.961291E-01   3.433501E+00   2.489702E-01   2.383417E-01   3.924715E+00   2.040512E-01   2.001344E-01   5.433838E+00   2.011800E-01   2.134335E-01   6.828609E+00   3.110956E-01   2.071584E-01   6.643641E+00   3.515412E+00   8.086624E-01   5.518143E+00   1.711616E+00   3.894873E-01   5.815941E+00   5.647082E-01   6.983991E-01   5.107009E+00   9.887707E-01   2.525796E-01   9.330682E+00   6.413198E+00   2.091816E+00   6.070042E+00   4.338050E+00   1.136132E+00   5.955007E+00   8.745001E-01   1.191950E+00   1.377300E+01   1.228261E+01   3.186349E+00   6.793387E+00   1.937532E+00   2.768827E-01   1.608624E+00   7.491768E-01   1.856687E+00   2.815576E+00   7.705535E+00   2.600427E+00   5.553366E+00   6.128730E+00   1.528541E+00   8.457940E+00   8.665285E+00   3.077488E+00   7.058464E+00   9.329380E-01   9.439500E-01   9.974302E+00   1.046376E+01   4.201468E-01   7.811076E+00   8.552584E-01   4.287776E-01   8.960520E+00   9.285864E-01   8.740628E-01   6.384280E+00   1.740432E+00   8.885434E-01   6.880529E+00   9.739730E-01   2.101452E-01   8.770653E+00   2.253035E-01   5.909603E-01   1.035162E+01   2.131783E-01   3.159488E-01   1.092097E+01   2.047242E-01   2.238442E-01   1.133600E+01   2.140074E-01   2.406226E-01   1.213444E+01   8.282554E-01   9.604215E-01   1.205564E+01   5.468342E-01   4.344273E-01   1.225750E+01   2.090597E-01   1.108255E+00   1.390800E+01   3.419184E-01   6.648480E-01   1.987532E-01   1.965903E-01   5.280181E-01   4.024586E-01   6.806766E-01   2.011736E-01   2.671905E+00   1.154043E+00   2.741838E-01   3.013855E+00   2.004289E-01   2.102694E-01   3.680589E+00   5.645231E-01   2.155906E-01   4.785739E+00   2.023748E-01   2.596506E-01   6.097392E+00   1.993260E-01   1.999755E-01   6.575442E+00   1.294592E+00   2.415556E-01   5.850466E+00   1.248598E+00   4.990284E-01   5.180064E+00   1.407543E+00   7.442264E-01   5.611903E+00   8.944586E+00   1.875670E+00   1.699409E+00   1.077534E+00   2.821734E-01   4.845160E+00   7.829356E-01   2.045336E+00   6.810555E+00   2.009165E+00   9.734200E-01   4.957433E+00   9.482944E+00   1.931192E+00   1.163945E+01   5.760558E-01   2.284802E+00   9.972535E+00   1.046422E+01   2.847895E+00   5.938157E-01   1.750906E+00   9.234313E-01   6.233663E+00   1.490684E+01   2.240647E-01   7.482305E+00   3.748863E+00   1.150098E+00   9.089224E+00   1.959699E+00   7.796409E-01   1.219645E+01   4.495649E+00   3.954973E+00   8.202635E+00   3.587061E+00   7.698871E-01   6.448215E+00   2.108475E+00   4.489760E-01   8.013699E+00   1.170983E+00   2.027220E-01   8.504445E+00   1.973287E-01   2.888387E-01   8.936323E+00   2.652842E-01   2.269842E-01   9.594296E+00   6.141046E-01   9.597988E-01   1.112521E+01   4.530709E-01   4.986198E-01   1.165571E+01   2.103292E-01   5.117910E-01   1.012240E+01   4.427231E-01   1.963190E+00   1.150315E+01   6.763422E-01   5.330822E-01   9.197330E+00   5.597463E-01   4.098540E-01   1.396413E+01   5.807476E-01   9.894552E-01   3.414305E-01   5.485417E-01   7.722899E-01   2.721326E+00   4.183065E-01   6.543554E-01   2.615344E+00   1.994531E-01   3.304887E-01   4.886291E+00   5.202294E-01   5.760915E-01   5.212677E+00   4.612789E-01   8.664510E-01   4.343012E+00   2.072260E-01   2.496282E-01   6.431793E+00   4.429412E-01   2.198917E-01   6.686366E+00   1.200184E+00   8.655379E-01   6.378089E+00   1.336593E+00   6.005393E-01   5.636379E+00   8.891085E-01   5.456796E-01   7.510505E+00   1.160749E+01   1.075405E+00   1.174061E+01   1.491356E+01   3.117820E+00   1.124924E+01   2.176249E-01   2.327781E+00   7.560039E+00   1.941835E+00   2.859484E-01   1.217126E+01   3.390956E-01   2.758038E+00   1.159871E+01   2.174184E+01   2.691686E+00   5.895408E+00   5.105180E-01   1.902382E+00   5.784314E+00   5.412616E-01   1.519192E+00   6.117911E+00   4.691394E+00   5.821891E-01   4.204335E+00   8.084239E+00   2.920952E+00   7.879148E+00   8.282730E-01   9.190660E-01   8.683881E+00   8.975862E+00   1.555678E+00   9.555225E-01   4.108757E+00   1.100826E+00   1.480214E+01   5.933367E-01   2.248928E+00   9.059740E+00   9.412978E+00   5.902513E-01   7.122513E+00   2.665800E+00   2.396078E-01   7.437237E+00   7.369057E-01   6.837476E-01   7.950151E+00   3.524891E-01   5.992383E-01   9.956776E+00   3.354936E-01   2.642092E-01   9.778906E+00   7.449935E-01   3.560489E-01   1.165077E+01   4.805952E-01   2.056276E-01   1.207863E+01   9.294111E-01   1.353974E+00   1.030955E+01   4.901240E-01   1.042003E+00   1.327285E+01   2.002084E-01   8.383350E-01   1.296961E+01   5.974157E-01   1.399777E+00   8.250760E-01   3.161843E-01   1.493824E+00   2.316289E+00   2.899901E-01   5.885653E-01   3.283336E+00   2.052033E-01   6.051202E-01   4.160784E+00   2.605754E-01   6.132821E-01   4.572326E+00   2.090633E-01   6.178167E-01   5.801558E+00   1.998922E-01   5.386107E-01   6.603098E+00   2.193515E-01   5.333747E-01   7.259628E+00   1.128073E+01   6.146706E-01   9.942361E+00   2.397212E+00   1.436080E+00   3.408714E+00   6.288194E+00   1.457543E+00   1.031308E+01   1.539850E+01   1.038014E+00   3.459980E+00   3.339441E-01   2.935709E+00   1.295281E+01   7.034879E+00   4.884541E+00   1.302052E+01   1.178401E+00   1.997998E+00   3.709098E+00   4.694657E+00   3.686569E+00   5.415942E+00   7.323061E-01   2.315142E-01   4.977207E+00   1.114997E+00   1.068500E+00   1.675949E+00   1.288597E+00   1.045475E+00   5.452017E+00   1.352697E+01   3.739532E+00   9.593369E-01   5.245733E-01   2.677980E+00   7.557013E+00   2.362909E+01   4.503044E+00   4.621253E+00   7.448263E+00   3.306742E+00   5.136909E+00   3.377812E+00   1.136079E+00   3.821175E+00   9.246549E-01   3.310218E-01   5.626617E+00   6.330641E+00   6.312151E-01   7.137201E+00   1.727214E+00   9.796299E-01   6.796583E+00   1.014776E+00   1.733418E+00   9.658567E+00   2.099767E-01   9.930018E-01   1.036832E+01   1.913026E-01   7.459906E-01   1.126878E+01   2.139240E-01   8.538200E-01   1.237700E+01   2.248944E-01   5.091098E-01   1.285660E+01   2.377423E-01   7.954902E-01   1.194959E+01   2.165290E-01   2.040984E-01   9.858167E-01   1.962095E-01   3.683398E-01   1.436394E+00   8.865881E-01   5.820343E-01   2.615448E+00   1.994039E-01   1.009534E+00   3.717337E+00   1.987710E-01   5.547562E-01   4.473007E+00   6.073447E-01   6.313189E-01   5.145034E+00   2.131620E-01   4.908653E-01   6.393668E+00   2.023026E-01   9.098839E-01   5.447021E+00   9.656659E-01   9.143607E-01   5.563093E+00   1.033538E+01   7.022697E-01   5.520803E+00   7.952521E-01   1.755956E+00   1.166921E+01   2.890151E+00   3.635164E+00   1.384692E+01   4.087619E-01   3.454796E+00   1.026882E+01   5.590864E-01   5.711753E-01   2.913256E+00   1.841889E+01   3.104846E+00   5.107943E+00   4.847462E-01   2.001373E-01   5.463770E+00   4.479938E-01   5.500178E-01   6.553173E+00   3.391363E+00   1.478645E+00   1.077753E+01   1.517501E+01   2.467317E+00   5.349755E+00   7.715453E-01   1.282036E+00   9.017633E+00   4.980771E-01   7.590207E-01   8.302590E+00   3.687041E+00   1.373772E+00   6.055506E+00   1.806065E+00   3.583025E-01   6.435734E+00   4.613667E+00   1.751269E+00   7.530252E+00   3.293900E+00   9.708314E-01   9.350258E+00   2.698926E-01   6.783500E-01   1.065576E+01   4.964694E-01   3.361145E-01   9.997881E+00   1.094009E+00   7.874065E-01   1.202441E+01   2.076924E-01   7.398444E-01   1.356517E+01   1.882617E-01   2.200300E-01   6.017405E+00   3.629741E+00   2.282607E+00   1.353895E+01   2.060363E-01   1.596951E+00   2.715895E+00   1.829857E+00   3.156964E+00   1.357890E+00   2.657025E-01   2.142965E-01   3.007809E+00   2.032574E-01   8.927836E-01   5.995914E+00   3.651295E+00   1.744094E+00   6.206796E+00   3.128246E-01   5.735028E-01   4.567854E+00   5.333464E-01   1.995359E-01   6.433147E+00   6.745343E-01   7.665092E-01   7.451766E+00   6.823785E+00   1.497907E+00   6.010384E+00   7.860973E-01   2.344202E-01   6.853525E+00   1.159540E+01   1.576848E+00   1.398192E+00   5.701343E+00   1.053432E+00   3.184840E-01   2.100095E-01   2.504843E+00   8.460463E+00   2.120025E-01   1.797644E+00   7.661655E+00   1.298401E+01   9.324194E-01   3.941523E+00   1.449142E+01   4.795360E+00   5.494238E+00   4.391558E+00   2.892131E+00   9.791036E-01   1.153698E+01   2.126008E+00   1.316101E+01   1.617522E+01   1.866958E+00   1.244975E+01   1.186254E+00   1.035169E+00   5.830581E+00   1.403941E+01   3.394859E-01   5.029116E+00   1.596734E+00   3.219342E-01   9.537571E+00   1.251778E+01   2.776052E+00   4.987942E+00   2.047724E+00   1.617203E+00   7.613877E+00   2.790886E+00   2.575986E+00   7.513909E+00   5.896032E-01   2.053169E-01   8.368279E+00   4.783393E-01   7.231917E-01   9.465875E+00   5.339175E-01   1.619491E+00   9.853202E+00   6.019105E-01   1.403491E+00   1.174195E+01   1.970324E-01   1.056328E+00   1.268289E+01   2.393029E-01   1.172096E+00   1.290969E+01   6.243457E-01   1.932515E+00   1.393191E+00   3.644861E-01   1.255975E+00   1.787552E+00   2.534766E-01   2.093148E-01   3.914567E+00   2.020849E-01   9.232826E-01   4.387863E+00   2.114433E-01   1.008069E+00   6.163078E+00   2.011078E-01   1.243006E+00   6.814508E+00   4.589905E-01   8.361983E-01   1.080226E+01   1.243607E+01   3.386417E+00   4.414075E+00   1.097693E+00   1.104262E+00   9.585830E+00   9.478948E-01   1.498371E+00   1.099403E+01   2.095306E+01   1.804063E+00   2.270523E+00   1.124246E+01   1.551704E+00   1.032294E+01   2.222608E+01   6.072004E-01   7.289162E+00   2.596668E+00   4.747606E+00   3.864284E+00   1.101427E+01   2.875546E+00   4.317825E+00   8.363128E+00   2.385605E+00   6.086619E+00   8.564325E-01   6.467128E-01   7.043193E+00   1.596800E+00  
[...]
<PointData Scalars="Diameter" Vectors="Velocity">
<DataArray type="Float32" Name="Diameter" format="ascii">
  4.000000E-01   4.000000E-01   4.000000E-01   4.000000E-01   4.000000E-01   4.000000E-01   4.000000E-01   4.000000E-01   4.000000E-01   4.000000E-01   4.000000E-01   4.000000E-01   4.000000E-01   4.000000E-01   4.000000E-01   4.000000E-01   4.000000E-01   4.000000E-01   4.000000E-01   4.000000E-01   4.000000E-01   4.000000E-01   4.000000E-01   4.000000E-01   4.000000E-01   4.000000E-01   4.000000E-01   4.000000E-01   4.000000E-01   4.000000E-01   4.000000E-01   4.000000E-01   4.000000E-01   4.000000E-01   4.000000E-01   4.000000E-01   4.000000E-01   4.000000E-01   4.000000E-01   4.000000E-01   4.000000E-01   4.000000E-01   4.000000E-01   4.000000E-01   4.000000E-01   4.000000E-01   4.000000E-01   4.000000E-01   4.000000E-01   4.000000E-01   4.000000E-01   4.000000E-01   4.000000E-01   4.000000E-01   4.000000E-01   4.000000E-01   4.000000E-01   4.000000E-01   4.000000E-01   4.000000E-01   4.000000E-01   4.000000E-01   4.000000E-01   4.000000E-01   4.000000E-01   4.000000E-01   4.000000E-01   4.000000E-01   4.000000E-01   4.000000E-01   4.000000E-01   4.000000E-01   4.000000E-01   4.000000E-01   4.000000E-01   4.000000E-01   4.000000E-01   4.000000E-01   4.000000E-01   4.000000E-01   4.000000E-01   4.000000E-01   4.000000E-01   4.000000E-01   4.000000E-01   4.000000E-01   4.000000E-01   4.000000E-01   4.000000E-01   4.000000E-01   4.000000E-01   4.000000E-01   4.000000E-01   4.000000E-01   4.000000E-01   4.000000E-01   4.000000E-01   4.000000E-01   4.000000E-01   4.000000E-01   4.000000E-01   4.000000E-01   4.000000E-01   4.000000E-01   4.000000E-01   4.000000E-01   4.000000E-01   4.000000E-01   4.000000E-01   4.000000E-01   4.000000E-01   4.000000E-01   4.000000E-01   4.000000E-01   4.000000E-01   4.000000E-01   4.000000E-01   4.000000E-01   4.000000E-01   4.000000E-01   4.000000E-01   4.000000E-01   4.000000E-01   4.000000E-01   4.000000E-01   4.000000E-01   4.000000E-01   4.000000E-01   4.000000E-01   4.000000E-01   4.000000E-01   4.000000E-01   4.000000E-01   4.000000E-01   4.000000E-01   4.000000E-01   4.000000E-01   4.000000E-01   4.000000E-01   4.000000E-01   4.000000E-01   4.000000E-01   4.000000E-01   4.000000E-01   4.000000E-01   4.000000E-01   4.000000E-01   4.000000E-01   4.000000E-01   4.000000E-01   4.000000E-01   4.000000E-01   4.000000E-01   4.000000E-01   4.000000E-01   4.000000E-01   4.000000E-01   4.000000E-01   4.000000E-01   4.000000E-01   4.000000E-01   4.000000E-01   4.000000E-01   4.000000E-01   4.000000E-01   4.000000E-01   4.000000E-01   4.000000E-01   4.000000E-01   4.000000E-01   4.000000E-01   4.000000E-01   4.000000E-01   4.000000E-01   4.000000E-01   4.000000E-01   4.000000E-01   4.000000E-01   4.000000E-01   4.000000E-01   4.000000E-01   4.000000E-01   4.000000E-01   4.000000E-01   4.000000E-01   4.000000E-01   4.000000E-01   4.000000E-01   4.000000E-01   4.000000E-01   4.000000E-01   4.000000E-01   4.000000E-01   4.000000E-01   4.000000E-01   4.000000E-01   4.000000E-01   4.000000E-01   4.000000E-01   4.000000E-01   4.000000E-01   4.000000E-01   4.000000E-01   4.000000E-01   4.000000E-01   4.000000E-01   4.000000E-01   4.000000E-01   4.000000E-01   4.000000E-01   4.000000E-01   4.000000E-01   4.000000E-01   4.000000E-01   4.000000E-01   4.000000E-01   4.000000E-01   4.000000E-01   4.000000E-01   4.000000E-01   4.000000E-01   4.000000E-01   4.000000E-01   4.000000E-01   4.000000E-01   4.000000E-01   4.000000E-01   4.000000E-01   4.000000E-01   4.000000E-01   4.000000E-01   4.000000E-01   4.000000E-01   4.000000E-01   4.000000E-01   4.000000E-01   4.000000E-01   4.000000E-01   4.000000E-01   4.000000E-01   4.000000E-01   4.000000E-01   4.000000E-01   4.000000E-01   4.000000E-01   4.000000E-01   4.000000E-01   4.000000E-01   4.000000E-01   4.000000E-01   4.000000E-01   4.000000E-01   4.000000E-01   4.000000E-01   4.000000E-01   4.000000E-01   4.000000E-01   4.000000E-01   4.000000E-01   4.000000E-01   4.000000E-01   4.000000E-01   4.000000E-01   4.000000E-01   4.000000E-01   4.000000E-01   4.000000E-01   4.000000E-01   4.000000E-01   4.000000E-01   4.000000E-01   4.000000E-01   4.000000E-01   4.000000E-01   4.000000E-01   4.000000E-01   4.000000E-01   4.000000E-01   4.000000E-01   4.000000E-01   4.000000E-01   4.000000E-01   4.000000E-01   4.000000E-01   4.000000E-01   4.000000E-01   4.000000E-01   4.000000E-01   4.000000E-01   4.000000E-01   4.000000E-01   4.000000E-01   4.000000E-01   4.000000E-01   4.000000E-01   4.000000E-01   4.000000E-01   4.000000E-01   4.000000E-01   4.000000E-01   4.000000E-01   4.000000E-01   4.000000E-01   4.000000E-01   4.000000E-01   4.000000E-01   4.000000E-01   4.000000E-01   4.000000E-01   4.000000E-01   4.000000E-01   4.000000E-01   4.000000E-01   4.000000E-01   4.000000E-01   4.000000E-01   4.000000E-01   4.000000E-01   4.000000E-01   4.000000E-01   4.000000E-01   4.000000E-01   4.000000E-01   4.000000E-01   4.000000E-01   4.000000E-01   4.000000E-01   4.000000E-01   4.000000E-01   4.000000E-01   4.000000E-01   4.000000E-01   4.000000E-01   4.000000E-01   4.000000E-01   4.000000E-01   4.000000E-01   4.000000E-01   4.000000E-01   4.000000E-01   4.000000E-01   4.000000E-01   4.000000E-01   4.000000E-01   4.000000E-01   4.000000E-01   4.000000E-01   4.000000E-01   4.000000E-01   4.000000E-01   4.000000E-01   4.000000E-01   4.000000E-01   4.000000E-01   4.000000E-01   4.000000E-01   4.000000E-01   4.000000E-01   4.000000E-01   4.000000E-01   4.000000E-01   4.000000E-01   4.000000E-01   4.000000E-01   4.000000E-01   4.000000E-01   4.000000E-01   4.000000E-01   4.000000E-01   4.000000E-01   4.000000E-01   4.000000E-01   4.000000E-01   4.000000E-01   4.000000E-01   4.000000E-01   4.000000E-01   4.000000E-01   4.000000E-01   4.000000E-01   4.000000E-01   4.000000E-01   4.000000E-01   4.000000E-01   4.000000E-01   4.000000E-01   4.000000E-01   4.000000E-01   4.000000E-01   4.000000E-01   4.000000E-01   4.000000E-01   4.000000E-01   4.000000E-01   4.000000E-01   4.000000E-01   4.000000E-01   4.000000E-01   4.000000E-01   4.000000E-01   4.000000E-01   4.000000E-01   4.000000E-01   4.000000E-01   4.000000E-01   4.000000E-01   4.000000E-01   4.000000E-01   4.000000E-01   4.000000E-01   4.000000E-01   4.000000E-01   4.000000E-01   4.000000E-01   4.000000E-01   4.000000E-01   4.000000E-01   4.000000E-01   4.000000E-01   4.000000E-01   4.000000E-01   4.000000E-01   4.000000E-01   4.000000E-01   4.000000E-01   4.000000E-01   4.000000E-01   4.000000E-01   4.000000E-01   4.000000E-01   4.000000E-01   4.000000E-01   4.000000E-01   4.000000E-01   4.000000E-01   4.000000E-01   4.000000E-01   4.000000E-01   4.000000E-01   4.000000E-01   4.000000E-01   4.000000E-01   4.000000E-01   4.000000E-01   4.000000E-01   4.000000E-01   4.000000E-01   4.000000E-01   4.000000E-01   4.000000E-01   4.000000E-01   4.000000E-01   4.000000E-01   4.000000E-01   4.000000E-01   4.000000E-01   4.000000E-01   4.000000E-01   4.000000E-01   4.000000E-01   4.000000E-01   4.000000E-01   4.000000E-01   4.000000E-01   4.000000E-01   4.000000E-01   4.000000E-01   4.000000E-01   4.000000E-01   4.000000E-01   4.000000E-01   4.000000E-01   4.000000E-01   4.000000E-01   4.000000E-01   4.000000E-01   4.000000E-01   4.000000E-01   4.000000E-01   4.000000E-01   4.000000E-01   4.000000E-01   4.000000E-01   4.000000E-01   4.000000E-01   4.000000E-01   4.000000E-01   4.000000E-01   4.000000E-01   4.000000E-01   4.000000E-01   4.000000E-01   4.000000E-01   4.000000E-01   4.000000E-01   4.000000E-01   4.000000E-01   4.000000E-01   4.000000E-01   4.000000E-01   4.000000E-01   4.000000E-01   4.000000E-01   4.000000E-01   4.000000E-01   4.000000E-01   4.000000E-01   4.000000E-01   4.000000E-01   4.000000E-01   4.000000E-01   4.000000E-01   4.000000E-01   4.000000E-01   4.000000E-01   4.000000E-01   4.000000E-01   4.000000E-01   4.000000E-01   4.000000E-01   4.000000E-01   4.000000E-01   4.000000E-01   4.000000E-01   4.000000E-01   4.000000E-01   4.000000E-01   4.000000E-01   4.000000E-01   4.000000E-01   4.000000E-01   4.000000E-01   4.000000E-01   4.000000E-01   4.000000E-01   4.000000E-01   4.000000E-01   4.000000E-01   4.000000E-01   4.000000E-01   4.000000E-01   4.000000E-01   4.000000E-01   4.000000E-01   4.000000E-01   4.000000E-01   4.000000E-01   4.000000E-01   4.000000E-01   4.000000E-01   4.000000E-01   4.000000E-01   4.000000E-01   4.000000E-01   4.000000E-01   4.000000E-01   4.000000E-01   4.000000E-01   4.000000E-01   4.000000E-01   4.000000E-01   4.000000E-01   4.000000E-01   4.000000E-01   4.000000E-01   4.000000E-01   4.000000E-01   4.000000E-01   4.000000E-01   4.000000E-01   4.000000E-01   4.000000E-01   4.000000E-01   4.000000E-01   4.000000E-01   4.000000E-01   4.000000E-01   4.000000E-01   4.000000E-01   4.000000E-01   4.000000E-01   4.000000E-01   4.000000E-01   4.000000E-01   4.000000E-01   4.000000E-01   4.000000E-01   4.000000E-01   4.000000E-01   4.000000E-01   4.000000E-01   4.000000E-01   4.000000E-01   4.000000E-01   4.000000E-01   4.000000E-01   4.000000E-01   4.000000E-01   4.000000E-01   4.000000E-01   4.000000E-01   4.000000E-01   4.000000E-01   4.000000E-01   4.000000E-01   4.000000E-01   4.000000E-01   4.000000E-01   4.000000E-01   4.000000E-01   4.000000E-01   4.000000E-01   4.000000E-01   4.000000E-01   4.000000E-01   4.000000E-01   4.000000E-01   4.000000E-01   4.000000E-01   4.000000E-01   4.000000E-01   4.000000E-01   4.000000E-01   4.000000E-01   4.000000E-01   4.000000E-01   4.000000E-01   4.000000E-01   4.000000E-01   4.000000E-01   4.000000E-01   4.000000E-01   4.000000E-01   4.000000E-01   4.000000E-01   4.000000E-01   4.000000E-01   4.000000E-01   4.000000E-01   4.000000E-01   4.000000E-01   4.000000E-01   4.000000E-01   4.000000E-01   4.000000E-01   4.000000E-01   4.000000E-01   4.000000E-01   4.000000E-01   4.000000E-01   4.000000E-01   4.000000E-01   4.000000E-01   4.000000E-01   4.000000E-01   4.000000E-01   4.000000E-01   4.000000E-01   4.000000E-01   4.000000E-01   4.000000E-01   4.000000E-01   4.000000E-01   4.000000E-01   4.000000E-01   4.000000E-01   4.000000E-01   4.000000E-01   4.000000E-01   4.000000E-01   4.000000E-01   4.000000E-01   4.000000E-01   4.000000E-01   4.000000E-01   4.000000E-01   4.000000E-01   4.000000E-01   4.000000E-01   4.000000E-01   4.000000E-01   4.000000E-01   4.000000E-01   4.000000E-01   4.000000E-01   4.000000E-01   4.000000E-01   4.000000E-01   4.000000E-01   4.000000E-01   4.000000E-01   4.000000E-01   4.000000E-01   4.000000E-01   4.000000E-01   4.000000E-01   4.000000E-01   4.000000E-01   4.000000E-01   4.000000E-01   4.000000E-01   4.000000E-01   4.000000E-01   4.000000E-01   4.000000E-01   4.000000E-01   4.000000E-01   4.000000E-01   4.000000E-01   4.000000E-01   4.000000E-01   4.000000E-01   4.000000E-01   4.000000E-01   4.000000E-01   4.000000E-01   4.000000E-01   4.000000E-01   4.000000E-01   4.000000E-01   4.000000E-01   4.000000E-01   4.000000E-01   4.000000E-01   4.000000E-01   4.000000E-01   4.000000E-01   4.000000E-01   4.000000E-01   4.000000E-01   4.000000E-01   4.000000E-01   4.000000E-01   4.000000E-01   4.000000E-01   4.000000E-01   4.000000E-01   4.000000E-01   4.000000E-01   4.000000E-01   4.000000E-01   4.000000E-01   4.000000E-01   4.000000E-01   4.000000E-01   4.000000E-01   4.000000E-01   4.000000E-01   4.000000E-01   4.000000E-01   4.000000E-01   4.000000E-01   4.000000E-01   4.000000E-01   4.000000E-01   4.000000E-01   4.000000E-01   4.000000E-01   4.000000E-01   4.000000E-01   4.000000E-01   4.000000E-01   4.000000E-01   4.000000E-01   4.000000E-01   4.000000E-01   4.000000E-01   4.000000E-01   4.000000E-01   4.000000E-01   4.000000E-01   4.000000E-01   4.000000E-01   4.000000E-01   4.000000E-01   4.000000E-01   4.000000E-01   4.000000E-01   4.000000E-01   4.000000E-01   4.000000E-01   4.000000E-01   4.000000E-01   4.000000E-01   4.000000E-01   4.000000E-01   4.000000E-01   4.000000E-01   4.000000E-01   4.000000E-01   4.000000E-01   4.000000E-01   4.000000E-01   4.000000E-01   4.000000E-01   4.000000E-01   4.000000E-01   4.000000E-01   4.000000E-01   4.000000E-01   4.000000E-01   4.000000E-01   4.000000E-01   4.000000E-01   4.000000E-01   4.000000E-01   4.000000E-01   4.000000E-01   4.000000E-01   4.000000E-01   4.000000E-01   4.000000E-01   4.000000E-01   4.000000E-01   4.000000E-01   4.000000E-01   4.000000E-01   4.000000E-01   4.000000E-01   4.000000E-01   4.000000E-01   4.000000E-01   4.000000E-01   4.000000E-01   4.000000E-01   4.000000E-01   4.000000E-01   4.000000E-01   4.000000E-01   4.000000E-01   4.000000E-01   4.000000E-01   4.000000E-01   4.000000E-01   4.000000E-01   4.000000E-01   4.000000E-01   4.000000E-01   4.000000E-01   4.000000E-01   4.000000E-01   4.000000E-01   4.000000E-01   4.000000E-01   4.000000E-01   4.000000E-01   4.000000E-01   4.000000E-01   4.000000E-01   4.000000E-01   4.000000E-01   4.000000E-01   4.000000E-01   4.000000E-01   4.000000E-01   4.000000E-01   4.000000E-01   4.000000E-01   4.000000E-01   4.000000E-01   4.000000E-01   4.000000E-01   4.000000E-01   4.000000E-01   4.000000E-01   4.000000E-01   4.000000E-01   4.000000E-01   4.000000E-01   4.000000E-01   4.000000E-01   4.000000E-01   4.000000E-01   4.000000E-01   4.000000E-01   4.000000E-01   4.000000E-01   4.000000E-01   4.000000E-01   4.000000E-01   4.000000E-01   4.000000E-01   4.000000E-01   4.000000E-01   4.000000E-01   4.000000E-01   4.000000E-01   4.000000E-01   4.000000E-01   4.000000E-01   4.000000E-01   4.000000E-01   4.000000E-01   4.000000E-01   4.000000E-01   4.000000E-01   4.000000E-01   4.000000E-01   4.000000E-01   4.000000E-01   4.000000E-01   4.000000E-01   4.000000E-01   4.000000E-01   4.000000E-01   4.000000E-01   4.000000E-01   4.000000E-01   4.000000E-01   4.000000E-01   4.000000E-01   4.000000E-01   4.000000E-01   4.000000E-01   4.000000E-01   4.000000E-01   4.000000E-01   4.000000E-01   4.000000E-01   4.000000E-01   4.000000E-01   4.000000E-01   4.000000E-01   4.000000E-01   4.000000E-01   4.000000E-01   4.000000E-01   4.000000E-01   4.000000E-01   4.000000E-01   4.000000E-01   4.000000E-01   4.000000E-01   4.000000E-01   4.000000E-01   4.000000E-01   4.000000E-01   4.000000E-01   4.000000E-01   4.000000E-01   4.000000E-01   4.000000E-01   4.000000E-01   4.000000E-01   4.000000E-01   4.000000E-01   4.000000E-01   4.000000E-01   4.000000E-01   4.000000E-01   4.000000E-01   4.000000E-01   4.000000E-01   4.000000E-01   4.000000E-01   4.000000E-01   4.000000E-01   4.000000E-01   4.000000E-01   4.000000E-01   4.000000E-01   4.000000E-01   4.000000E-01   4.000000E-01   4.000000E-01   4.000000E-01   4.000000E-01   4.000000E-01   4.000000E-01   4.000000E-01   4.000000E-01   4.000000E-01   4.000000E-01   4.000000E-01   4.000000E-01   4.000000E-01   4.000000E-01   4.000000E-01   4.000000E-01   4.000000E-01   4.000000E-01   4.000000E-01   4.000000E-01   4.000000E-01   4.000000E-01   4.000000E-01   4.000000E-01   4.000000E-01   4.000000E-01   4.000000E-01   4.000000E-01   4.000000E-01   4.000000E-01   4.000000E-01   4.000000E-01   4.000000E-01   4.000000E-01   4.000000E-01   4.000000E-01   4.000000E-01   4.000000E-01   4.000000E-01   4.000000E-01   4.000000E-01   4.000000E-01   4.000000E-01   4.000000E-01   4.000000E-01   4.000000E-01   4.000000E-01   4.000000E-01   4.000000E-01   4.000000E-01   4.000000E-01   4.000000E-01   4.000000E-01   4.000000E-01   4.000000E-01   4.000000E-01   4.000000E-01   4.000000E-01   4.000000E-01   4.000000E-01   4.000000E-01   4.000000E-01   4.000000E-01   4.000000E-01   4.000000E-01   4.000000E-01   4.000000E-01   4.000000E-01   4.000000E-01   4.000000E-01   4.000000E-01   4.000000E-01   4.000000E-01   4.000000E-01   4.000000E-01   4.000000E-01   4.000000E-01   4.000000E-01   4.000000E-01   4.000000E-01   4.000000E-01   4.000000E-01   4.000000E-01   4.000000E-01   4.000000E-01   4.000000E-01   4.000000E-01   4.000000E-01   4.000000E-01   4.000000E-01   4.000000E-01   4.000000E-01   4.000000E-01   4.000000E-01   4.000000E-01   4.000000E-01   4.000000E-01   4.000000E-01   4.000000E-01   4.000000E-01   4.000000E-01   4.000000E-01   4.000000E-01   4.000000E-01   4.000000E-01   4.000000E-01   4.000000E-01   4.000000E-01   4.000000E-01   4.000000E-01   4.000000E-01   4.000000E-01   4.000000E-01   4.000000E-01   4.000000E-01   4.000000E-01   4.000000E-01   4.000000E-01   4.000000E-01   4.000000E-01   4.000000E-01   4.000000E-01   4.000000E-01   4.000000E-01   4.000000E-01   4.000000E-01   4.000000E-01   4.000000E-01   4.000000E-01   4.000000E-01   4.000000E-01   4.000000E-01   4.000000E-01   4.000000E-01   4.000000E-01   4.000000E-01   4.000000E-01   4.000000E-01   4.000000E-01   4.000000E-01   4.000000E-01   4.000000E-01   4.000000E-01   4.000000E-01   4.000000E-01   4.000000E-01   4.000000E-01   4.000000E-01   4.000000E-01   4.000000E-01   4.000000E-01   4.000000E-01   4.000000E-01   4.000000E-01   4.000000E-01   4.000000E-01   4.000000E-01   4.000000E-01   4.000000E-01   4.000000E-01   4.000000E-01   4.000000E-01   4.000000E-01   4.000000E-01   4.000000E-01   4.000000E-01   4.000000E-01   4.000000E-01   4.000000E-01   4.000000E-01   4.000000E-01   4.000000E-01   4.000000E-01   4.000000E-01   4.000000E-01   4.000000E-01   4.000000E-01   4.000000E-01   4.000000E-01   4.000000E-01   4.000000E-01   4.000000E-01   4.000000E-01   4.000000E-01   4.000000E-01   4.000000E-01   4.000000E-01   4.000000E-01   4.000000E-01   4.000000E-01   4.000000E-01   4.000000E-01   4.000000E-01   4.000000E-01   4.000000E-01   4.000000E-01   4.000000E-01   4.000000E-01   4.000000E-01   4.000000E-01   4.000000E-01   4.000000E-01   4.000000E-01   4.000000E-01   4.000000E-01   4.000000E-01   4.000000E-01   4.000000E-01   4.000000E-01   4.000000E-01   4.000000E-01   4.000000E-01   4.000000E-01   4.000000E-01   4.000000E-01   4.000000E-01   4.000000E-01   4.000000E-01   4.000000E-01   4.000000E-01   4.000000E-01   4.000000E-01   4.000000E-01   4.000000E-01   4.000000E-01   4.000000E-01   4.000000E-01   4.000000E-01   4.000000E-01   4.000000E-01   4.000000E-01   4.000000E-01   4.000000E-01   4.000000E-01   4.000000E-01   4.000000E-01   4.000000E-01   4.000000E-01   4.000000E-01   4.000000E-01   4.000000E-01   4.000000E-01   4.000000E-01   4.000000E-01   4.000000E-01   4.000000E-01   4.000000E-01   4.000000E-01   4.000000E-01   4.000000E-01   4.000000E-01   4.000000E-01   4.000000E-01   4.000000E-01   4.000000E-01   4.000000E-01   4.000000E-01   4.000000E-01   4.000000E-01   4.000000E-01   4.000000E-01   4.000000E-01   4.000000E-01   4.000000E-01   4.000000E-01   4.000000E-01   4.000000E-01   4.000000E-01   4.000000E-01   4.000000E-01   4.000000E-01   4.000000E-01   4.000000E-01   4.000000E-01   4.000000E-01   4.000000E-01   4.000000E-01   4.000000E-01   4.000000E-01   4.000000E-01   4.000000E-01   4.000000E-01   4.000000E-01   4.000000E-01   4.000000E-01   4.000000E-01   4.000000E-01   4.000000E-01   4.000000E-01   4.000000E-01   4.000000E-01   4.000000E-01   4.000000E-01   4.000000E-01   4.000000E-01   4.000000E-01   4.000000E-01   4.000000E-01   4.000000E-01   4.000000E-01   4.000000E-01   4.000000E-01   4.000000E-01   4.000000E-01   4.000000E-01   4.000000E-01   4.000000E-01   4.000000E-01   4.000000E-01   4.000000E-01   4.000000E-01   4.000000E-01   4.000000E-01   4.000000E-01   4.000000E-01   4.000000E-01   4.000000E-01   4.000000E-01   4.000000E-01   4.000000E-01   4.000000E-01   4.000000E-01   4.000000E-01   4.000000E-01   4.000000E-01   4.000000E-01   4.000000E-01   4.000000E-01   4.000000E-01   4.000000E-01   4.000000E-01   4.000000E-01   4.000000E-01   4.000000E-01   4.000000E-01   4.000000E-01   4.000000E-01   4.000000E-01   4.000000E-01   4.000000E-01   4.000000E-01   4.000000E-01   4.000000E-01   4.000000E-01   4.000000E-01   4.000000E-01   4.000000E-01   4.000000E-01   4.000000E-01   4.000000E-01   4.000000E-01   4.000000E-01   4.000000E-01   4.000000E-01   4.000000E-01   4.000000E-01   4.000000E-01   4.000000E-01   4.000000E-01   4.000000E-01   4.000000E-01   4.000000E-01   4.000000E-01   