<?xml version="1.0"?>
<!-- Time =  4.0018362602810181E-01s -->
<VTKFile type="PolyData" version="0.1" byte_order="LittleEndian">
<PolyData>
<Piece NumberOfPoints="0000002400" NumberOfVerts="0" NumberOfLines="0" NumberOfStrips="0" NumberOfPolys="0">
<Points>
<DataArray type="Float32" Name="Position" NumberOfComponents="3" format="ascii">
  2.138513E-01   2.000388E-01   2.024197E-01   8.697309E-01   2.092900E-01   2.015131E-01   1.278650E+00   2.075046E-01   2.065398E-01   1.683258E+00   2.068227E-01   2.047049E-01   2.132313E+00   2.001152E-01   2.009383E-01   3.159087E+00   2.039086E-01   2.034209E-01   3.572058E+00   2.030461E-01   2.007917E-01   3.970699E+00   2.015874E-01   2.606036E-01   4.406330E+00   1.997475E-01   2.148671E-01   4.966050E+00   1.995389E-01   1.999014E-01   5.427977E+00   2.012794E-01   2.290820E-01   5.855899E+00   2.057890E-01   2.005289E-01   6.255816E+00   2.002697E-01   2.034672E-01   7.243943E+00   6.429102E-01   2.670808E-01   6.270795E+00   1.245496E+00   5.173784E-01   6.438402E+00   7.588625E-01   2.667952E-01   7.487138E+00   1.108024E+00   2.223757E-01   5.828689E+00   1.855681E+01   3.225669E+00   3.223651E+00   4.997832E+00   1.348521E+00   9.028455E+00   2.385142E+00   1.672746E+00   8.565243E+00   1.713442E+00   9.352500E-01   8.233601E+00   2.053856E+00   2.779641E-01   7.942312E+00   1.102966E+00   2.733125E-01   8.903593E+00   1.999219E-01   2.033589E-01   9.465657E+00   1.996708E-01   3.122676E-01   1.033545E+01   1.998365E-01   2.001289E-01   1.073672E+01   1.997801E-01   1.999792E-01   1.146498E+01   1.998806E-01   2.911626E-01   1.186836E+01   1.997622E-01   2.948882E-01   1.229520E+01   1.996782E-01   2.559872E-01   1.269464E+01   1.996987E-01   2.358621E-01   1.315932E+01   1.997284E-01   2.167839E-01   1.363509E+01   1.996590E-01   1.999407E-01   1.408255E+01   1.997157E-01   2.513859E-01   1.448588E+01   1.997826E-01   2.297072E-01   1.984007E-01   5.999971E-01   2.257546E-01   5.846923E-01   2.001254E-01   4.887136E-01   1.097116E+00   5.282017E-01   3.700709E-01   1.474291E+00   5.598068E-01   2.008646E-01   1.886877E+00   5.358387E-01   3.276550E-01   2.746185E+00   2.027769E-01   2.074717E-01   3.366649E+00   4.273186E-01   4.653550E-01   3.775433E+00   5.498071E-01   2.009177E-01   4.187044E+00   5.343009E-01   2.001809E-01   4.681510E+00   4.959217E-01   2.028201E-01   5.189498E+00   5.312572E-01   2.065208E-01   5.651665E+00   5.347672E-01   3.125546E-01   6.048217E+00   5.595915E-01   2.285500E-01   6.668009E+00   1.998772E-01   2.034448E-01   7.155935E+00   1.578618E+00   2.824408E-01   8.695815E+00   7.316867E+00   1.490673E+00   6.795860E+00   5.764120E-01   2.555100E-01   5.266607E+00   9.478690E-01   2.464844E+00   4.885149E+00   9.630740E-01   1.106084E+00   1.024612E+01   7.069834E+00   2.068508E+00   7.227345E+00   3.037269E+00   2.021797E-01   7.916447E+00   1.791463E+00   2.320040E-01   8.030936E+00   3.528230E-01   2.936718E-01   9.193112E+00   4.789398E-01   2.235964E-01   9.849649E+00   1.999708E-01   1.999844E-01   1.053615E+01   5.457588E-01   2.058770E-01   1.110655E+01   3.521702E-01   1.999590E-01   1.166766E+01   5.324248E-01   1.999931E-01   1.207499E+01   5.287418E-01   1.999896E-01   1.249255E+01   5.429332E-01   1.998084E-01   1.292583E+01   5.239521E-01   1.999787E-01   1.339703E+01   5.209304E-01   1.999241E-01   1.386173E+01   5.291382E-01   1.999964E-01   1.428200E+01   5.425321E-01   1.999110E-01   1.480010E+01   4.453756E-01   1.998946E-01   5.665386E-01   8.736682E-01   3.424088E-01   5.789651E-01   4.818739E-01   2.009569E-01   1.266681E+00   9.044560E-01   2.957996E-01   1.638101E+00   8.405297E-01   4.712120E-01   2.182185E+00   8.398278E-01   2.928330E-01   2.400992E+00   4.979611E-01   2.031499E-01   3.383609E+00   7.288643E-01   1.992042E-01   3.625433E+00   7.260487E-01   5.635554E-01   3.922618E+00   9.173268E-01   3.489603E-01   4.336329E+00   8.615394E-01   3.789615E-01   4.880469E+00   8.428826E-01   2.357597E-01   6.195732E+00   6.631733E-01   1.221238E+00   6.385806E+00   4.810485E-01   6.232715E-01   7.429545E+00   1.962134E+00   7.200353E-01   8.265877E+00   3.071730E+00   9.583618E-01   7.187820E+00   6.230229E+00   1.575073E+00   7.081207E+00   3.897211E-01   5.941623E-01   6.879737E+00   8.188376E-01   7.287548E-01   4.604087E+00   1.133224E+00   2.442390E-01   9.189267E+00   7.959775E+00   1.645806E+00   1.141855E+01   1.113134E+01   1.397863E+00   8.812222E+00   1.922703E+00   6.553976E-01   7.725139E+00   1.446311E+00   2.983649E-01   8.475431E+00   2.743717E-01   2.086441E-01   9.648208E+00   5.450181E-01   2.262839E-01   1.008524E+01   5.231568E-01   2.005436E-01   1.090668E+01   6.988373E-01   1.997509E-01   1.130655E+01   7.065183E-01   2.001295E-01   1.187459E+01   8.748337E-01   1.999022E-01   1.227490E+01   8.784499E-01   1.999772E-01   1.272392E+01   8.688685E-01   2.144136E-01   1.316348E+01   8.455378E-01   2.072022E-01   1.362363E+01   8.504797E-01   2.024972E-01   1.406148E+01   8.623010E-01   2.952155E-01   1.456625E+01   6.281557E-01   4.679516E-01   2.000638E-01   2.000482E-01   6.070991E-01   1.007984E+00   1.998450E-01   5.831970E-01   1.474133E+00   2.005882E-01   5.546066E-01   1.954679E+00   2.199423E-01   5.583156E-01   2.399898E+00   2.137049E-01   4.980482E-01   3.043425E+00   2.099760E-01   5.872985E-01   3.739360E+00   1.997252E-01   5.871489E-01   4.168917E+00   1.999121E-01   6.232576E-01   4.691015E+00   1.995250E-01   4.987208E-01   5.180652E+00   1.993345E-01   5.555229E-01   5.680152E+00   2.005826E-01   5.599644E-01   6.698487E+00   2.205199E-01   6.434946E-01   7.622970E+00   1.308160E+00   7.141238E-01   6.884909E+00   5.998384E+00   4.831389E-01   6.337916E+00   6.143463E+00   4.549898E-01   4.427535E+00   1.226551E+01   8.310040E-01   6.526734E+00   5.873855E-01   1.002351E+00   5.987700E+00   2.405115E+01   1.164673E+00   8.010570E+00   2.749104E+01   1.938566E+00   6.557244E+00   2.005147E+01   3.212609E+00   6.280595E+00   1.120320E+01   2.103793E+00   8.309930E+00   4.886200E+00   1.176481E+00   8.280286E+00   2.242169E-01   6.111352E-01   8.767754E+00   2.011641E-01   5.810505E-01   9.706457E+00   2.003660E-01   6.354944E-01   1.050795E+01   2.000691E-01   5.678660E-01   1.111227E+01   1.995930E-01   5.696069E-01   1.159622E+01   1.997480E-01   6.692254E-01   1.206306E+01   1.996695E-01   7.086148E-01   1.247782E+01   1.997547E-01   7.510306E-01   1.293220E+01   1.996179E-01   7.182189E-01   1.338000E+01   1.997840E-01   7.785840E-01   1.392338E+01   1.997742E-01   6.364324E-01   1.445350E+01   1.998070E-01   8.780356E-01   5.500054E-01   5.764637E-01   6.190066E-01   5.795736E-01   2.028508E-01   8.879483E-01   1.281638E+00   2.036295E-01   9.080450E-01   1.796658E+00   5.714179E-01   7.298753E-01   2.193446E+00   5.374450E-01   6.159379E-01   2.722450E+00   4.517650E-01   5.227060E-01   3.391846E+00   1.998929E-01   7.962016E-01   3.985892E+00   5.470029E-01   5.458971E-01   4.421388E+00   4.937882E-01   5.241302E-01   4.944671E+00   5.247437E-01   5.217377E-01   5.467686E+00   2.000705E-01   8.987821E-01   6.084064E+00   2.106989E-01   5.653348E-01   7.188644E+00   8.724268E-01   1.159820E+00   9.651264E+00   9.281039E+00   1.697320E+00   4.551373E+00   1.091605E+01   1.933813E+00   5.798771E+00   6.400113E-01   6.679925E-01   3.100427E+00   7.995909E-01   5.421343E-01   2.895230E+00   1.064223E+00   2.007017E-01   1.389739E+01   8.203825E+00   1.955273E+00   8.793753E+00   1.197535E+00   1.578022E+00   1.025722E+01   7.564588E-01   2.008865E+00   4.160594E+00   7.036718E+00   1.089051E+00   7.984418E+00   8.440592E-01   5.752751E-01   8.719542E+00   5.923410E-01   4.715198E-01   9.305193E+00   2.057648E-01   6.787781E-01   1.009271E+01   1.995610E-01   5.180496E-01   1.081116E+01   4.537201E-01   5.011338E-01   1.137071E+01   5.030594E-01   5.384597E-01   1.184045E+01   4.972496E-01   5.607528E-01   1.228978E+01   4.820993E-01   5.391446E-01   1.269092E+01   4.622971E-01   5.374809E-01   1.318526E+01   4.460405E-01   5.308020E-01   1.360592E+01   4.197527E-01   5.325868E-01   1.427926E+01   3.645692E-01   5.580759E-01   1.478699E+01   1.998300E-01   5.152906E-01   4.363574E-01   8.658042E-01   8.711429E-01   8.965656E-01   4.882387E-01   8.367507E-01   1.363699E+00   5.509324E-01   7.144377E-01   2.530534E+00   8.074989E-01   5.274214E-01   2.810265E+00   7.016385E-01   8.281093E-01   2.929412E+00   6.216153E-01   2.078234E-01   3.321558E+00   6.010708E-01   8.224440E-01   3.801203E+00   4.779068E-01   8.958232E-01   4.165286E+00   8.490259E-01   7.399873E-01   4.662627E+00   7.333490E-01   7.357156E-01   5.648881E+00   5.492064E-01   1.030544E+00   6.087717E+00   4.478483E-01   9.005461E-01   6.899046E+00   1.201416E+00   1.156622E+00   8.117501E+00   2.818686E+00   1.302325E+00   5.396111E+00   3.730513E+00   8.555021E-01   5.344653E+00   5.547932E-01   7.532903E-01   3.062018E+00   8.903349E-01   2.086264E+00   5.002963E+00   5.859140E-01   1.022409E+00   8.739711E+00   6.862304E-01   1.505082E+00   7.844320E+00   5.374262E+00   1.603923E+00   1.210298E+01   1.311321E+00   2.236042E+00   8.860242E+00   7.736284E+00   2.763106E+00   8.323284E+00   5.469172E+00   1.416107E+00   8.473070E+00   4.935032E-01   8.433486E-01   8.997587E+00   4.188298E-01   8.266401E-01   9.901503E+00   5.472922E-01   5.669780E-01   1.030113E+01   5.409823E-01   5.372137E-01   1.106126E+01   7.371013E-01   6.354721E-01   1.161199E+01   8.191929E-01   4.963489E-01   1.207579E+01   8.200012E-01   5.418779E-01   1.250742E+01   8.175521E-01   5.467925E-01   1.294853E+01   7.682182E-01   5.422633E-01   1.341658E+01   7.708187E-01   5.619543E-01   1.395846E+01   6.022929E-01   5.811768E-01   1.473555E+01   4.782076E-01   7.978157E-01   1.997082E-01   1.994617E-01   1.041088E+00   9.140859E-01   1.997081E-01   1.113857E+00   1.712043E+00   2.003701E-01   8.793864E-01   2.254626E+00   2.174972E-01   8.709018E-01   3.032029E+00   2.009249E-01   9.880263E-01   3.625017E+00   1.995559E-01  
[...]
<PointData Scalars="Diameter" Vectors="Velocity">
<DataArray type="Float32" Name="Diameter" format="ascii">
  4.000000E-01   4.000000E-01   4.000000E-01   4.000000E-01   4.000000E-01   4.000000E-01   4.000000E-01   4.000000E-01   4.000000E-01   4.000000E-01   4.000000E-01   4.000000E-01   4.000000E-01   4.000000E-01   4.000000E-01   4.000000E-01   4.000000E-01   4.000000E-01   4.000000E-01   4.000000E-01   4.000000E-01   4.000000E-01   4.000000E-01   4.000000E-01   4.000000E-01   4.000000E-01   4.000000E-01   4.000000E-01   4.000000E-01   4.000000E-01   4.000000E-01   4.000000E-01   4.000000E-01   4.000000E-01   4.000000E-01   4.000000E-01   4.000000E-01   4.000000E-01   4.000000E-01   4.000000E-01   4.000000E-01   4.000000E-01   4.000000E-01   4.000000E-01   4.000000E-01   4.000000E-01   4.000000E-01   4.000000E-01   4.000000E-01   4.000000E-01   4.000000E-01   4.000000E-01   4.000000E-01   4.000000E-01   4.000000E-01   4.000000E-01   4.000000E-01   4.000000E-01   4.000000E-01   4.000000E-01   4.000000E-01   4.000000E-01   4.000000E-01   4.000000E-01   4.000000E-01   4.000000E-01   4.000000E-01   4.000000E-01   4.000000E-01   4.000000E-01   4.000000E-01   4.000000E-01   4.000000E-01   4.000000E-01   4.000000E-01   4.000000E-01   4.000000E-01   4.000000E-01   4.000000E-01   4.000000E-01   4.000000E-01   4.000000E-01   4.000000E-01   4.000000E-01   4.000000E-01   4.000000E-01   4.000000E-01   4.000000E-01   4.000000E-01   4.000000E-01   4.000000E-01   4.000000E-01   4.000000E-01   4.000000E-01   4.000000E-01   4.000000E-01   4.000000E-01   4.000000E-01   4.000000E-01   4.000000E-01   4.000000E-01   4.000000E-01   4.000000E-01   4.000000E-01   4.000000E-01   4.000000E-01   4.000000E-01   4.000000E-01   4.000000E-01   4.000000E-01   4.000000E-01   4.000000E-01   4.000000E-01   4.000000E-01   4.000000E-01   4.000000E-01   4.000000E-01   4.000000E-01   4.000000E-01   4.000000E-01   4.000000E-01   4.000000E-01   4.000000E-01   4.000000E-01   4.000000E-01   4.000000E-01   4.000000E-01   4.000000E-01   4.000000E-01   4.000000E-01   4.000000E-01   4.000000E-01   4.000000E-01   4.000000E-01   4.000000E-01   4.000000E-01   4.000000E-01   4.000000E-01   4.000000E-01   4.000000E-01   4.000000E-01   4.000000E-01   4.000000E-01   4.000000E-01   4.000000E-01   4.000000E-01   4.000000E-01   4.000000E-01   4.000000E-01   4.000000E-01   4.000000E-01   4.000000E-01   4.000000E-01   4.000000E-01   4.000000E-01   4.000000E-01   4.000000E-01   4.000000E-01   4.000000E-01   4.000000E-01   4.000000E-01   4.000000E-01   4.000000E-01   4.000000E-01   4.000000E-01   4.000000E-01   4.000000E-01   4.000000E-01   4.000000E-01   4.000000E-01   4.000000E-01   4.000000E-01   4.000000E-01   4.000000E-01   4.000000E-01   4.000000E-01   4.000000E-01   4.000000E-01   4.000000E-01   4.000000E-01   4.000000E-01   4.000000E-01   4.000000E-01   4.000000E-01   4.000000E-01   4.000000E-01   4.000000E-01   4.000000E-01   4.000000E-01   4.000000E-01   4.000000E-01   4.000000E-01   4.000000E-01   4.000000E-01   4.000000E-01   4.000000E-01   4.000000E-01   4.000000E-01   4.000000E-01   4.000000E-01   4.000000E-01   4.000000E-01   4.000000E-01   4.000000E-01   4.000000E-01   4.000000E-01   4.000000E-01   4.000000E-01   4.000000E-01   4.000000E-01   4.000000E-01   4.000000E-01   4.000000E-01   4.000000E-01   4.000000E-01   4.000000E-01   4.000000E-01   4.000000E-01   4.000000E-01   4.000000E-01   4.000000E-01   4.000000E-01   4.000000E-01   4.000000E-01   4.000000E-01   4.000000E-01   4.000000E-01   4.000000E-01   4.000000E-01   4.000000E-01   4.000000E-01   4.000000E-01   4.000000E-01   4.000000E-01   4.000000E-01   4.000000E-01   4.000000E-01   4.000000E-01   4.000000E-01   4.000000E-01   4.000000E-01   4.000000E-01   4.000000E-01   4.000000E-01   4.000000E-01   4.000000E-01   4.000000E-01   4.000000E-01   4.000000E-01   4.000000E-01   4.000000E-01   4.000000E-01   4.000000E-01   4.000000E-01   4.000000E-01   4.000000E-01   4.000000E-01   4.000000E-01   4.000000E-01   4.000000E-01   4.000000E-01   4.000000E-01   4.000000E-01   4.000000E-01   4.000000E-01   4.000000E-01   4.000000E-01   4.000000E-01   4.000000E-01   4.000000E-01   4.000000E-01   4.000000E-01   4.000000E-01   4.000000E-01   4.000000E-01   4.000000E-01   4.000000E-01   4.000000E-01   4.000000E-01   4.000000E-01   4.000000E-01   4.000000E-01   4.000000E-01   4.000000E-01   4.000000E-01   4.000000E-01   4.000000E-01   4.000000E-01   4.000000E-01   4.000000E-01   4.000000E-01   4.000000E-01   4.000000E-01   4.000000E-01   4.000000E-01   4.000000E-01   4.000000E-01   4.000000E-01   4.000000E-01   4.000000E-01   4.000000E-01   4.000000E-01   4.000000E-01   4.000000E-01   4.000000E-01   4.000000E-01   4.000000E-01   4.000000E-01   4.000000E-01   4.000000E-01   4.000000E-01   4.000000E-01   4.000000E-01   4.000000E-01   4.000000E-01   4.000000E-01   4.000000E-01   4.000000E-01   4.000000E-01   4.000000E-01   4.000000E-01   4.000000E-01   4.000000E-01   4.000000E-01   4.000000E-01   4.000000E-01   4.000000E-01   4.000000E-01   4.000000E-01   4.000000E-01   4.000000E-01   4.000000E-01   4.000000E-01   4.000000E-01   4.000000E-01   4.000000E-01   4.000000E-01   4.000000E-01   4.000000E-01   4.000000E-01   4.000000E-01   4.000000E-01   4.000000E-01   4.000000E-01   4.000000E-01   4.000000E-01   4.000000E-01   4.000000E-01   4.000000E-01   4.000000E-01   4.000000E-01   4.000000E-01   4.000000E-01   4.000000E-01   4.000000E-01   4.000000E-01   4.000000E-01   4.000000E-01   4.000000E-01   4.000000E-01   4.000000E-01   4.000000E-01   4.000000E-01   4.000000E-01   4.000000E-01   4.000000E-01   4.000000E-01   4.000000E-01   4.000000E-01   4.000000E-01   4.000000E-01   4.000000E-01   4.000000E-01   4.000000E-01   4.000000E-01   4.000000E-01   4.000000E-01   4.000000E-01   4.000000E-01   4.000000E-01   4.000000E-01   4.000000E-01   4.000000E-01   4.000000E-01   4.000000E-01   4.000000E-01   4.000000E-01   4.000000E-01   4.000000E-01   4.000000E-01   4.000000E-01   4.000000E-01   4.000000E-01   4.000000E-01   4.000000E-01   4.000000E-01   4.000000E-01   4.000000E-01   4.000000E-01   4.000000E-01   4.000000E-01   4.000000E-01   4.000000E-01   4.000000E-01   4.000000E-01   4.000000E-01   4.000000E-01   4.000000E-01   4.000000E-01   4.000000E-01   4.000000E-01   4.000000E-01   4.000000E-01   4.000000E-01   4.000000E-01   4.000000E-01   4.000000E-01   4.000000E-01   4.000000E-01   4.000000E-01   4.000000E-01   4.000000E-01   4.000000E-01   4.000000E-01   4.000000E-01   4.000000E-01   4.000000E-01   4.000000E-01   4.000000E-01   4.000000E-01   4.000000E-01   4.000000E-01   4.000000E-01   4.000000E-01   4.000000E-01   4.000000E-01   4.000000E-01   4.000000E-01   4.000000E-01   4.000000E-01   4.000000E-01   4.000000E-01   4.000000E-01   4.000000E-01   4.000000E-01   4.000000E-01   4.000000E-01   4.000000E-01   4.000000E-01   4.000000E-01   4.000000E-01   4.000000E-01   4.000000E-01   4.000000E-01   4.000000E-01   4.000000E-01   4.000000E-01   4.000000E-01   4.000000E-01   4.000000E-01   4.000000E-01   4.000000E-01   4.000000E-01   4.000000E-01   4.000000E-01   4.000000E-01   4.000000E-01   4.000000E-01   4.000000E-01   4.000000E-01   4.000000E-01   4.000000E-01   4.000000E-01   4.000000E-01   4.000000E-01   4.000000E-01   4.000000E-01   4.000000E-01   4.000000E-01   4.000000E-01   4.000000E-01   4.000000E-01   4.000000E-01   4.000000E-01   4.000000E-01   4.000000E-01   4.000000E-01   4.000000E-01   4.000000E-01   4.000000E-01   4.000000E-01   4.000000E-01   4.000000E-01   4.000000E-01   4.000000E-01   4.000000E-01   4.000000E-01   4.000000E-01   4.000000E-01   4.000000E-01   4.000000E-01   4.000000E-01   4.000000E-01   4.000000E-01   4.000000E-01   4.000000E-01   4.000000E-01   4.000000E-01   4.000000E-01   4.000000E-01   4.000000E-01   4.000000E-01   4.000000E-01   4.000000E-01   4.000000E-01   4.000000E-01   4.000000E-01   4.000000E-01   4.000000E-01   4.000000E-01   4.000000E-01   4.000000E-01   4.000000E-01   4.000000E-01   4.000000E-01   4.000000E-01   4.000000E-01   4.000000E-01   4.000000E-01   4.000000E-01   4.000000E-01   4.000000E-01   4.000000E-01   4.000000E-01   4.000000E-01   4.000000E-01   4.000000E-01   4.000000E-01   4.000000E-01   4.000000E-01   4.000000E-01   4.000000E-01   4.000000E-01   4.000000E-01   4.000000E-01   4.000000E-01   4.000000E-01   4.000000E-01   4.000000E-01   4.000000E-01   4.000000E-01   4.000000E-01   4.000000E-01   4.000000E-01   4.000000E-01   4.000000E-01   4.000000E-01   4.000000E-01   4.000000E-01   4.000000E-01   4.000000E-01   4.000000E-01   4.000000E-01   4.000000E-01   4.000000E-01   4.000000E-01   4.000000E-01   4.000000E-01   4.000000E-01   4.000000E-01   4.000000E-01   4.000000E-01   4.000000E-01   4.000000E-01   4.000000E-01   4.000000E-01   4.000000E-01   4.000000E-01   4.000000E-01   4.000000E-01   4.000000E-01   4.000000E-01   4.000000E-01   4.000000E-01   4.000000E-01   4.000000E-01   4.000000E-01   4.000000E-01   4.000000E-01   4.000000E-01   4.000000E-01   4.000000E-01   4.000000E-01   4.000000E-01   4.000000E-01   4.000000E-01   4.000000E-01   4.000000E-01   4.000000E-01   4.000000E-01   4.000000E-01   4.000000E-01   4.000000E-01   4.000000E-01   4.000000E-01   4.000000E-01   4.000000E-01   4.000000E-01   4.000000E-01   4.000000E-01   4.000000E-01   4.000000E-01   4.000000E-01   4.000000E-01   4.000000E-01   4.000000E-01   4.000000E-01   4.000000E-01   4.000000E-01   4.000000E-01   4.000000E-01   4.000000E-01   4.000000E-01   4.000000E-01   4.000000E-01   4.000000E-01   4.000000E-01   4.000000E-01   4.000000E-01   4.000000E-01   4.000000E-01   4.000000E-01   4.000000E-01   4.000000E-01   4.000000E-01   4.000000E-01   4.000000E-01   4.000000E-01   4.000000E-01   4.000000E-01   4.000000E-01   4.000000E-01   4.000000E-01   4.000000E-01   4.000000E-01   4.000000E-01   4.000000E-01   4.000000E-01   4.000000E-01   4.000000E-01   4.000000E-01   4.000000E-01   4.000000E-01   4.000000E-01   4.000000E-01   4.000000E-01   4.000000E-01   4.000000E-01   4.000000E-01   4.000000E-01   4.000000E-01   4.000000E-01   4.000000E-01   4.000000E-01   4.000000E-01   4.000000E-01   4.000000E-01   4.000000E-01   4.000000E-01   4.000000E-01   4.000000E-01   4.000000E-01   4.000000E-01   4.000000E-01   4.000000E-01   4.000000E-01   4.000000E-01   4.000000E-01   4.000000E-01   4.000000E-01   4.000000E-01   4.000000E-01   4.000000E-01   4.000000E-01   4.000000E-01   4.000000E-01   4.000000E-01   4.000000E-01   4.000000E-01   4.000000E-01   4.000000E-01   4.000000E-01   4.000000E-01   4.000000E-01   4.000000E-01   4.000000E-01   4.000000E-01   4.000000E-01   4.000000E-01   4.000000E-01   4.000000E-01   4.000000E-01   4.000000E-01   4.000000E-01   4.000000E-01   4.000000E-01   4.000000E-01   4.000000E-01   4.000000E-01   4.000000E-01   4.000000E-01   4.000000E-01   4.000000E-01   4.000000E-01   4.000000E-01   4.000000E-01   4.000000E-01   4.000000E-01   4.000000E-01   4.000000E-01   4.000000E-01   4.000000E-01   4.000000E-01   4.000000E-01   4.000000E-01   4.000000E-01   4.000000E-01   4.000000E-01   4.000000E-01   4.000000E-01   4.000000E-01   4.000000E-01   4.000000E-01   4.000000E-01   4.000000E-01   4.000000E-01   4.000000E-01   4.000000E-01   4.000000E-01   4.000000E-01   4.000000E-01   4.000000E-01   4.000000E-01   4.000000E-01   4.000000E-01   4.000000E-01   4.000000E-01   4.000000E-01   4.000000E-01   4.000000E-01   4.000000E-01   4.000000E-01   4.000000E-01   4.000000E-01   4.000000E-01   4.000000E-01   4.000000E-01   4.000000E-01   4.000000E-01   4.000000E-01   4.000000E-01   4.000000E-01   4.000000E-01   4.000000E-01   4.000000E-01   4.000000E-01   4.000000E-01   4.000000E-01   4.000000E-01   4.000000E-01   4.000000E-01   4.000000E-01   4.000000E-01   4.000000E-01   4.000000E-01   4.000000E-01   4.000000E-01   4.000000E-01   4.000000E-01   4.000000E-01   4.000000E-01   4.000000E-01   4.000000E-01   4.000000E-01   4.000000E-01   4.000000E-01   4.000000E-01   4.000000E-01   4.000000E-01   4.000000E-01   4.000000E-01   4.000000E-01   4.000000E-01   4.000000E-01   4.000000E-01   4.000000E-01   4.000000E-01   4.000000E-01   4.000000E-01   4.000000E-01   4.000000E-01   4.000000E-01   4.000000E-01   4.000000E-01   4.000000E-01   4.000000E-01   4.000000E-01   4.000000E-01   4.000000E-01   4.000000E-01   4.000000E-01   4.000000E-01   4.000000E-01   4.000000E-01   4.000000E-01   4.000000E-01   4.000000E-01   4.000000E-01   4.000000E-01   4.000000E-01   4.000000E-01   4.000000E-01   4.000000E-01   4.000000E-01   4.000000E-01   4.000000E-01   4.000000E-01   4.000000E-01   4.000000E-01   4.000000E-01   4.000000E-01   4.000000E-01   4.000000E-01   4.000000E-01   4.000000E-01   4.000000E-01   4.000000E-01   4.000000E-01   4.000000E-01   4.000000E-01   4.000000E-01   4.000000E-01   4.000000E-01   4.000000E-01   4.000000E-01   4.000000E-01   4.000000E-01   4.000000E-01   4.000000E-01   4.000000E-01   4.000000E-01   4.000000E-01   4.000000E-01   4.000000E-01   4.000000E-01   4.000000E-01   4.000000E-01   4.000000E-01   4.000000E-01   4.000000E-01   4.000000E-01   4.000000E-01   4.000000E-01   4.000000E-01   4.000000E-01   4.000000E-01   4.000000E-01   4.000000E-01   4.000000E-01   4.000000E-01   4.000000E-01   4.000000E-01   4.000000E-01   4.000000E-01   4.000000E-01   4.000000E-01   4.000000E-01   4.000000E-01   4.000000E-01   4.000000E-01   4.000000E-01   4.000000E-01   4.000000E-01   4.000000E-01   4.000000E-01   4.000000E-01   4.000000E-01   4.000000E-01   4.000000E-01   4.000000E-01   4.000000E-01   4.000000E-01   4.000000E-01   4.000000E-01   4.000000E-01   4.000000E-01   4.000000E-01   4.000000E-01   4.000000E-01   4.000000E-01   4.000000E-01   4.000000E-01   4.000000E-01   4.000000E-01   4.000000E-01   4.000000E-01   4.000000E-01   4.000000E-01   4.000000E-01   4.000000E-01   4.000000E-01   4.000000E-01   4.000000E-01   4.000000E-01   4.000000E-01   4.000000E-01   4.000000E-01   4.000000E-01   4.000000E-01   4.000000E-01   4.000000E-01   4.000000E-01   4.000000E-01   4.000000E-01   4.000000E-01   4.000000E-01   4.000000E-01   4.000000E-01   4.000000E-01   4.000000E-01   4.000000E-01   4.000000E-01   4.000000E-01   4.000000E-01   4.000000E-01   4.000000E-01   4.000000E-01   4.000000E-01   4.000000E-01   4.000000E-01   4.000000E-01   4.000000E-01   4.000000E-01   4.000000E-01   4.000000E-01   4.000000E-01   4.000000E-01   4.000000E-01   4.000000E-01   4.000000E-01   4.000000E-01   4.000000E-01   4.000000E-01   4.000000E-01   4.000000E-01   4.000000E-01   4.000000E-01   4.000000E-01   4.000000E-01   4.000000E-01   4.000000E-01   4.000000E-01   4.000000E-01   4.000000E-01   4.000000E-01   4.000000E-01   4.000000E-01   4.000000E-01   4.000000E-01   4.000000E-01   4.000000E-01   4.000000E-01   4.000000E-01   4.000000E-01   4.000000E-01   4.000000E-01   4.000000E-01   4.000000E-01   4.000000E-01   4.000000E-01   4.000000E-01   4.000000E-01   4.000000E-01   4.000000E-01   4.000000E-01   4.000000E-01   4.000000E-01   4.000000E-01   4.000000E-01   4.000000E-01   4.000000E-01   4.000000E-01   4.000000E-01   4.000000E-01   4.000000E-01   4.000000E-01   4.000000E-01   4.000000E-01   4.000000E-01   4.000000E-01   4.000000E-01   4.000000E-01   4.000000E-01   4.000000E-01   4.000000E-01   4.000000E-01   4.000000E-01   4.000000E-01   4.000000E-01   4.000000E-01   4.000000E-01   4.000000E-01   4.000000E-01   4.000000E-01   4.000000E-01   4.000000E-01   4.000000E-01   4.000000E-01   4.000000E-01   4.000000E-01   4.000000E-01   4.000000E-01   4.000000E-01   4.000000E-01   4.000000E-01   4.000000E-01   4.000000E-01   4.000000E-01   4.000000E-01   4.000000E-01   4.000000E-01   4.000000E-01   4.000000E-01   4.000000E-01   4.000000E-01   4.000000E-01   4.000000E-01   4.000000E-01   4.000000E-01   4.000000E-01   4.000000E-01   4.000000E-01   4.000000E-01   4.000000E-01   4.000000E-01   4.000000E-01   4.000000E-01   4.000000E-01   4.000000E-01   4.000000E-01   4.000000E-01   4.000000E-01   4.000000E-01   4.000000E-01   4.000000E-01   4.000000E-01   4.000000E-01   4.000000E-01   4.000000E-01   4.000000E-01   4.000000E-01   4.000000E-01   4.000000E-01   4.000000E-01   4.000000E-01   4.000000E-01   4.000000E-01   4.000000E-01   4.000000E-01   4.000000E-01   4.000000E-01   4.000000E-01   4.000000E-01   4.000000E-01   4.000000E-01   4.000000E-01   4.000000E-01   4.000000E-01   4.000000E-01   4.000000E-01   4.000000E-01   4.000000E-01   4.000000E-01   4.000000E-01   4.000000E-01   4.000000E-01   4.000000E-01   4.000000E-01   4.000000E-01   4.000000E-01   4.000000E-01   4.000000E-01   4.000000E-01   4.000000E-01   4.000000E-01   4.000000E-01   4.000000E-01   4.000000E-01   4.000000E-01   4.000000E-01   4.000000E-01   4.000000E-01   4.000000E-01   4.000000E-01   4.000000E-01   4.000000E-01   4.000000E-01   4.000000E-01   4.000000E-01   4.000000E-01   4.000000E-01   4.000000E-01   4.000000E-01   4.000000E-01   4.000000E-01   4.000000E-01   4.000000E-01   4.000000E-01   4.000000E-01   4.000000E-01   4.000000E-01   4.000000E-01   4.000000E-01   4.000000E-01   4.000000E-01   4.000000E-01   4.000000E-01   4.000000E-01   4.000000E-01   4.000000E-01   4.000000E-01   4.000000E-01   4.000000E-01   4.000000E-01   4.000000E-01   4.000000E-01   4.000000E-01   4.000000E-01   4.000000E-01   4.000000E-01   4.000000E-01   4.000000E-01   4.000000E-01   4.000000E-01   4.000000E-01   4.000000E-01   4.000000E-01   4.000000E-01   4.000000E-01   4.000000E-01   4.000000E-01   4.000000E-01   4.000000E-01   4.000000E-01   4.000000E-01   4.000000E-01   4.000000E-01   4.000000E-01   4.000000E-01   4.000000E-01   4.000000E-01   4.000000E-01   4.000000E-01   4.000000E-01   4.000000E-01   4.000000E-01   4.000000E-01   4.000000E-01   4.000000E-01   4.000000E-01   4.000000E-01   4.000000E-01   4.000000E-01   4.000000E-01   4.000000E-01   4.000000E-01   4.000000E-01   4.000000E-01   4.000000E-01   4.000000E-01   4.000000E-01   4.000000E-01   4.000000E-01   4.000000E-01   4.000000E-01   4.000000E-01   4.000000E-01   4.000000E-01   4.000000E-01   4.000000E-01   4.000000E-01   4.000000E-01   4.000000E-01   4.000000E-01   4.000000E-01   4.000000E-01   4.000000E-01   4.000000E-01   4.000000E-01   4.000000E-01   4.000000E-01   4.000000E-01   4.000000E-01   4.000000E-01   4.000000E-01   4.000000E-01   4.000000E-01   4.000000E-01   4.000000E-01   4.000000E-01   4.000000E-01   4.000000E-01   4.000000E-01   4.000000E-01   4.000000E-01   4.000000E-01   4.000000E-01   4.000000E-01   4.000000E-01   4.000000E-01   4.000000E-01   4.000000E-01   4.000000E-01   4.000000E-01   4.000000E-01   4.000000E-01   4.000000E-01   4.000000E-01   4.000000E-01   4.000000E-01   4.000000E-01   4.000000E-01   4.000000E-01   4.000000E-01   4.000000E-01   4.000000E-01   4.000000E-01   4.000000E-01   4.000000E-01   4.000000E-01   4.000000E-01   4.000000E-01   4.000000E-01   4.000000E-01   4.000000E-01   4.000000E-01   4.000000E-01   4.000000E-01   4.000000E-01   4.000000E-01   4.000000E-01   4.000000E-01   4.000000E-01   4.000000E-01   4.000000E-01   4.000000E-01   4.000000E-01   4.000000E-01   4.000000E-01   4.000000E-01   4.000000E-01   4.000000E-01   4.000000E-01   4.000000E-01   4.000000E-01   4.000000E-01   4.000000E-01   4.000000E-01   4.000000E-01   4.000000E-01   4.000000E-01   4.000000E-01   4.000000E-01   4.000000E-01   4.000000E-01   4.000000E-01   4.000000E-01   4.000000E-01   4.000000E-01   4.000000E-01   4.000000E-01   4.000000E-01   4.000000E-01   4.000000E-01   4.000000E-01   4.000000E-01   4.000000E-01   4.000000E-01   4.000000E-01   4.000000E-01   4.000000E-01   4.000000E-01   4.000000E-01   4.000000E-01   4.000000E-01   4.000000E-01   4.000000E-01   4.000000E-01   4.000000E-01   4.000000E-01   4.000000E-01   4.000000E-01   4.000000E-01   4.000000E-01   4.000000E-01   4.000000E-01   4.000000E-01   4.000000E-01   4.000000E-01   4.000000E-01   4.000000E-01   4.000000E-01   4.000000E-01   4.000000E-01   4.000000E-01   4.000000E-01   4.000000E-01   4.000000E-01   4.000000E-01   4.000000E-01   4.000000E-01   4.000000E-01   4.000000E-01   4.000000E-01   4.000000E-01   4.000000E-01   