<?xml version="1.0"?>
<!-- Time =  2.0078362602810126E-01s -->
<VTKFile type="PolyData" version="0.1" byte_order="LittleEndian">
<PolyData>
<Piece NumberOfPoints="0000002400" NumberOfVerts="0" NumberOfLines="0" NumberOfStrips="0" NumberOfPolys="0">
<Points>
<DataArray type="Float32" Name="Position" NumberOfComponents="3" format="ascii">
  2.100790E-01   1.998086E-01   2.084562E-01   6.714780E-01   1.999520E-01   2.328406E-01   1.071784E+00   1.997171E-01   2.005760E-01   1.475484E+00   1.997217E-01   2.006046E-01   1.875537E+00   2.006819E-01   2.022631E-01   2.499714E+00   2.069967E-01   2.308527E-01   2.937065E+00   2.114268E-01   2.276069E-01   3.344573E+00   1.996414E-01   2.256392E-01   3.744273E+00   2.000833E-01   2.009973E-01   4.155157E+00   2.014556E-01   2.240104E-01   4.552810E+00   2.007843E-01   2.734512E-01   4.946881E+00   1.997588E-01   2.015876E-01   5.356616E+00   1.996596E-01   2.013212E-01   5.781554E+00   2.002237E-01   1.994023E-01   6.639961E+00   2.016441E-01   2.005671E-01   6.868702E+00   5.794532E-01   2.344664E-01   6.573325E+00   9.237714E-01   2.306372E-01   7.296610E+00   1.123072E+00   8.017028E-01   6.592495E+00   3.013752E+00   1.320676E+00   7.331707E+00   5.755937E-01   3.239367E-01   7.766775E+00   7.446294E-01   2.092459E-01   8.586019E+00   2.053398E-01   2.141262E-01   9.505272E+00   1.994974E-01   1.999889E-01   9.974206E+00   1.999405E-01   2.141598E-01   1.039361E+01   1.996965E-01   2.308768E-01   1.086978E+01   1.995888E-01   2.308025E-01   1.129476E+01   1.997084E-01   2.121890E-01   1.169474E+01   1.997637E-01   2.209442E-01   1.210699E+01   1.997997E-01   2.175793E-01   1.251996E+01   1.997164E-01   2.176850E-01   1.295926E+01   1.996674E-01   2.234975E-01   1.335915E+01   1.995785E-01   2.156951E-01   1.376104E+01   1.997447E-01   2.189687E-01   1.416555E+01   1.997627E-01   2.236011E-01   1.456565E+01   1.996707E-01   2.318244E-01   2.014510E-01   5.947319E-01   2.713958E-01   5.790700E-01   5.519690E-01   3.987439E-01   9.539521E-01   5.777958E-01   2.558132E-01   1.358284E+00   5.819498E-01   1.994518E-01   1.758188E+00   5.838550E-01   1.999442E-01   2.179198E+00   4.261504E-01   3.322454E-01   2.717060E+00   5.903733E-01   2.744558E-01   3.143996E+00   5.541719E-01   2.003088E-01   3.549572E+00   5.531522E-01   2.039568E-01   3.957672E+00   5.479847E-01   1.999869E-01   4.353327E+00   5.476334E-01   2.599095E-01   4.752666E+00   5.509130E-01   2.010406E-01   5.153535E+00   5.437293E-01   2.061005E-01   5.558644E+00   5.446122E-01   2.097436E-01   6.183527E+00   2.043414E-01   2.202025E-01   6.366637E+00   5.593748E-01   2.441289E-01   5.660387E+00   1.048558E+00   2.307708E-01   6.363026E+00   8.941217E-01   1.239206E+00   7.241013E+00   1.452801E+00   4.568504E-01   7.266993E+00   1.028143E+00   2.737473E-01   8.197575E+00   3.533896E-01   2.450411E-01   9.065886E+00   2.802574E-01   3.110412E-01   9.732814E+00   4.750926E-01   3.801472E-01   1.018525E+01   5.395823E-01   1.998618E-01   1.063178E+01   5.191841E-01   2.641662E-01   1.108116E+01   5.375304E-01   1.999209E-01   1.149502E+01   5.455844E-01   1.998082E-01   1.190068E+01   5.419377E-01   2.002812E-01   1.231362E+01   5.417382E-01   1.998726E-01   1.273996E+01   5.331663E-01   1.997174E-01   1.315886E+01   5.453120E-01   1.999546E-01   1.355992E+01   5.448732E-01   1.999341E-01   1.396349E+01   5.441590E-01   2.006209E-01   1.436625E+01   5.449445E-01   2.014158E-01   1.480009E+01   5.219550E-01   1.999902E-01   2.027311E-01   9.880850E-01   2.000712E-01   5.993298E-01   9.181311E-01   2.387601E-01   9.988135E-01   9.751458E-01   2.544529E-01   1.408788E+00   1.003718E+00   2.415928E-01   1.813058E+00   1.067488E+00   2.136519E-01   2.115680E+00   8.005170E-01   2.016583E-01   2.507190E+00   9.873152E-01   3.220375E-01   2.932272E+00   9.374415E-01   2.050041E-01   3.365954E+00   9.554619E-01   2.002006E-01   3.759739E+00   8.648717E-01   3.701436E-01   4.161824E+00   8.955207E-01   2.203670E-01   4.556849E+00   8.627636E-01   3.996138E-01   4.962696E+00   8.309206E-01   4.088378E-01   5.545898E+00   6.671833E-01   5.894902E-01   5.961944E+00   5.236679E-01   3.571084E-01   6.015408E+00   7.927664E-01   9.153412E-01   5.220894E+00   1.059138E+00   2.036515E-01   6.892034E+00   1.227043E+00   2.703608E-01   6.675773E+00   3.329084E+00   8.529355E-01   8.333855E+00   8.484753E-01   5.177191E-01   7.640501E+00   1.594205E+00   8.904063E-01   8.688911E+00   5.971922E-01   4.831082E-01   9.360085E+00   5.827782E-01   2.086796E-01   9.887001E+00   8.061840E-01   2.133245E-01   1.041256E+01   8.502833E-01   3.115002E-01   1.085540E+01   8.466169E-01   3.158765E-01   1.128140E+01   8.820570E-01   2.331270E-01   1.170076E+01   8.813064E-01   2.696652E-01   1.210731E+01   8.835090E-01   2.239334E-01   1.253365E+01   8.741565E-01   2.320293E-01   1.293988E+01   8.775658E-01   2.388651E-01   1.335984E+01   8.910347E-01   2.068752E-01   1.376096E+01   8.890831E-01   2.318658E-01   1.416425E+01   8.900781E-01   2.014293E-01   1.470283E+01   9.097900E-01   2.077313E-01   2.151061E-01   1.997608E-01   6.397645E-01   6.463021E-01   1.998786E-01   6.599730E-01   1.105248E+00   2.005857E-01   6.163149E-01   1.504638E+00   1.996434E-01   5.997145E-01   1.905671E+00   1.998226E-01   6.013356E-01   2.307308E+00   2.005178E-01   6.386851E-01   2.960930E+00   1.995519E-01   6.347759E-01   3.408481E+00   1.997998E-01   6.326295E-01   3.806908E+00   2.001306E-01   5.982910E-01   4.206893E+00   2.001334E-01   6.279044E-01   4.605124E+00   1.994015E-01   6.806967E-01   5.158539E+00   2.002362E-01   5.489532E-01   5.577490E+00   2.039234E-01   5.448672E-01   6.423636E+00   2.003721E-01   5.512621E-01   6.852141E+00   2.192647E-01   6.001987E-01   6.810678E+00   9.242499E-01   9.394217E-01   6.153034E+00   5.348078E+00   4.523992E-01   7.155866E+00   1.290606E+01   9.295067E-01   7.708187E+00   1.193627E+01   1.214831E+00   7.029151E+00   8.340060E+00   1.678769E+00   7.045354E+00   2.332918E+00   1.753109E+00   8.216054E+00   2.288299E-01   7.562208E-01   9.305671E+00   2.015628E-01   6.263586E-01   9.935667E+00   1.996918E-01   6.147539E-01   1.037290E+01   1.992502E-01   6.847004E-01   1.077426E+01   1.999227E-01   6.761496E-01   1.117163E+01   1.995302E-01   6.209058E-01   1.157542E+01   1.998560E-01   6.574315E-01   1.198193E+01   1.996005E-01   6.430292E-01   1.238172E+01   1.997580E-01   6.302967E-01   1.278130E+01   1.996096E-01   6.523594E-01   1.319004E+01   1.996646E-01   6.448029E-01   1.358987E+01   1.997237E-01   6.364331E-01   1.398975E+01   2.001822E-01   6.429518E-01   1.438951E+01   1.993763E-01   6.500973E-01   2.025374E-01   5.980906E-01   6.718770E-01   5.833987E-01   5.687220E-01   8.016607E-01   9.816403E-01   5.561421E-01   7.499262E-01   1.353964E+00   5.700663E-01   5.986447E-01   1.754503E+00   5.702028E-01   5.996169E-01   2.208966E+00   5.825104E-01   7.034575E-01   2.634203E+00   4.268051E-01   6.911925E-01   3.184251E+00   5.293899E-01   5.978307E-01   3.605610E+00   5.463724E-01   6.019287E-01   4.007776E+00   5.459527E-01   6.030979E-01   4.382012E+00   4.947435E-01   8.342150E-01   4.872420E+00   4.793221E-01   5.767156E-01   5.383233E+00   3.881951E-01   8.438036E-01   5.991090E+00   2.003463E-01   6.112370E-01   6.733366E+00   6.001720E-01   6.512253E-01   6.642731E+00   1.940187E+00   7.524427E-01   4.031432E+00   3.034084E+00   4.220800E-01   4.601282E+00   5.728575E+00   3.004562E-01   8.221740E+00   8.976696E+00   9.152519E-01   7.794369E+00   4.610983E+00   5.330639E-01   8.168189E+00   1.118158E+00   8.348466E-01   8.610219E+00   2.129090E-01   6.554539E-01   9.571415E+00   4.729789E-01   7.536720E-01   1.016549E+01   5.303116E-01   5.992595E-01   1.057113E+01   5.454167E-01   6.600825E-01   1.096403E+01   5.392165E-01   5.823984E-01   1.137650E+01   5.405021E-01   5.814782E-01   1.177646E+01   5.371760E-01   5.818878E-01   1.217987E+01   5.406380E-01   5.766502E-01   1.258542E+01   5.383238E-01   5.683335E-01   1.298442E+01   5.389390E-01   5.944530E-01   1.338827E+01   5.367261E-01   5.611778E-01   1.379065E+01   5.374544E-01   5.614921E-01   1.419410E+01   5.387223E-01   5.630231E-01   1.479231E+01   1.994539E-01   5.700046E-01   2.077293E-01   9.915981E-01   6.008770E-01   6.120411E-01   9.376346E-01   6.443229E-01   1.008151E+00   9.495947E-01   6.892913E-01   1.406866E+00   9.613247E-01   6.633536E-01   1.808104E+00   9.626238E-01   6.581740E-01   2.205229E+00   9.712557E-01   6.033402E-01   2.544412E+00   8.159956E-01   7.472903E-01   2.951010E+00   8.471468E-01   6.718885E-01   3.381564E+00   8.900358E-01   6.180032E-01   3.838367E+00   8.881172E-01   7.703383E-01   4.274284E+00   8.477805E-01   6.808306E-01   4.689207E+00   7.564209E-01   8.254286E-01   5.195345E+00   8.113242E-01   7.459407E-01   5.778459E+00   4.720086E-01   8.496208E-01   6.271027E+00   5.142894E-01   7.514745E-01   4.039627E+00   1.135929E+00   5.261545E-01   2.510954E+00   1.233825E+00   6.887674E-01   5.678027E+00   7.556128E+00   2.216755E-01   8.564182E+00   8.235186E+00   2.604665E-01   9.444712E+00   8.572508E-01   7.471632E-01   8.244067E+00   2.338296E+00   8.727017E-01   8.591647E+00   6.850870E-01   1.077841E+00   8.975361E+00   4.194234E-01   7.100370E-01   9.844742E+00   7.640156E-01   6.519810E-01   1.032977E+01   8.227060E-01   8.281953E-01   1.077726E+01   8.847868E-01   7.077292E-01   1.117057E+01   8.793107E-01   6.334189E-01   1.157929E+01   8.781937E-01   6.505879E-01   1.197610E+01   8.837497E-01   6.021904E-01   1.238348E+01   8.838164E-01   6.040903E-01   1.278332E+01   8.845264E-01   6.070024E-01   1.318835E+01   8.829189E-01   5.888613E-01   1.358882E+01   8.811888E-01   5.940797E-01   1.398838E+01   8.928451E-01   5.628028E-01   1.460669E+01   5.872880E-01   6.345224E-01   2.063795E-01   1.994954E-01   1.045022E+00   6.838470E-01   1.998260E-01   1.071500E+00   1.113623E+00   2.002457E-01   1.050137E+00   1.607940E+00   1.996140E-01   9.873746E-01   2.223301E+00   1.999282E-01  
[...]
<PointData Scalars="Diameter" Vectors="Velocity">
<DataArray type="Float32" Name="Diameter" format="ascii">
  4.000000E-01   4.000000E-01   4.000000E-01   4.000000E-01   4.000000E-01   4.000000E-01   4.000000E-01   4.000000E-01   4.000000E-01   4.000000E-01   4.000000E-01   4.000000E-01   4.000000E-01   4.000000E-01   4.000000E-01   4.000000E-01   4.000000E-01   4.000000E-01   4.000000E-01   4.000000E-01   4.000000E-01   4.000000E-01   4.000000E-01   4.000000E-01   4.000000E-01   4.000000E-01   4.000000E-01   4.000000E-01   4.000000E-01   4.000000E-01   4.000000E-01   4.000000E-01   4.000000E-01   4.000000E-01   4.000000E-01   4.000000E-01   4.000000E-01   4.000000E-01   4.000000E-01   4.000000E-01   4.000000E-01   4.000000E-01   4.000000E-01   4.000000E-01   4.000000E-01   4.000000E-01   4.000000E-01   4.000000E-01   4.000000E-01   4.000000E-01   4.000000E-01   4.000000E-01   4.000000E-01   4.000000E-01   4.000000E-01   4.000000E-01   4.000000E-01   4.000000E-01   4.000000E-01   4.000000E-01   4.000000E-01   4.000000E-01   4.000000E-01   4.000000E-01   4.000000E-01   4.000000E-01   4.000000E-01   4.000000E-01   4.000000E-01   4.000000E-01   4.000000E-01   4.000000E-01   4.000000E-01   4.000000E-01   4.000000E-01   4.000000E-01   4.000000E-01   4.000000E-01   4.000000E-01   4.000000E-01   4.000000E-01   4.000000E-01   4.000000E-01   4.000000E-01   4.000000E-01   4.000000E-01   4.000000E-01   4.000000E-01   4.000000E-01   4.000000E-01   4.000000E-01   4.000000E-01   4.000000E-01   4.000000E-01   4.000000E-01   4.000000E-01   4.000000E-01   4.000000E-01   4.000000E-01   4.000000E-01   4.000000E-01   4.000000E-01   4.000000E-01   4.000000E-01   4.000000E-01   4.000000E-01   4.000000E-01   4.000000E-01   4.000000E-01   4.000000E-01   4.000000E-01   4.000000E-01   4.000000E-01   4.000000E-01   4.000000E-01   4.000000E-01   4.000000E-01   4.000000E-01   4.000000E-01   4.000000E-01   4.000000E-01   4.000000E-01   4.000000E-01   4.000000E-01   4.000000E-01   4.000000E-01   4.000000E-01   4.000000E-01   4.000000E-01   4.000000E-01   4.000000E-01   4.000000E-01   4.000000E-01   4.000000E-01   4.000000E-01   4.000000E-01   4.000000E-01   4.000000E-01   4.000000E-01   4.000000E-01   4.000000E-01   4.000000E-01   4.000000E-01   4.000000E-01   4.000000E-01   4.000000E-01   4.000000E-01   4.000000E-01   4.000000E-01   4.000000E-01   4.000000E-01   4.000000E-01   4.000000E-01   4.000000E-01   4.000000E-01   4.000000E-01   4.000000E-01   4.000000E-01   4.000000E-01   4.000000E-01   4.000000E-01   4.000000E-01   4.000000E-01   4.000000E-01   4.000000E-01   4.000000E-01   4.000000E-01   4.000000E-01   4.000000E-01   4.000000E-01   4.000000E-01   4.000000E-01   4.000000E-01   4.000000E-01   4.000000E-01   4.000000E-01   4.000000E-01   4.000000E-01   4.000000E-01   4.000000E-01   4.000000E-01   4.000000E-01   4.000000E-01   4.000000E-01   4.000000E-01   4.000000E-01   4.000000E-01   4.000000E-01   4.000000E-01   4.000000E-01   4.000000E-01   4.000000E-01   4.000000E-01   4.000000E-01   4.000000E-01   4.000000E-01   4.000000E-01   4.000000E-01   4.000000E-01   4.000000E-01   4.000000E-01   4.000000E-01   4.000000E-01   4.000000E-01   4.000000E-01   4.000000E-01   4.000000E-01   4.000000E-01   4.000000E-01   4.000000E-01   4.000000E-01   4.000000E-01   4.000000E-01   4.000000E-01   4.000000E-01   4.000000E-01   4.000000E-01   4.000000E-01   4.000000E-01   4.000000E-01   4.000000E-01   4.000000E-01   4.000000E-01   4.000000E-01   4.000000E-01   4.000000E-01   4.000000E-01   4.000000E-01   4.000000E-01   4.000000E-01   4.000000E-01   4.000000E-01   4.000000E-01   4.000000E-01   4.000000E-01   4.000000E-01   4.000000E-01   4.000000E-01   4.000000E-01   4.000000E-01   4.000000E-01   4.000000E-01   4.000000E-01   4.000000E-01   4.000000E-01   4.000000E-01   4.000000E-01   4.000000E-01   4.000000E-01   4.000000E-01   4.000000E-01   4.000000E-01   4.000000E-01   4.000000E-01   4.000000E-01   4.000000E-01   4.000000E-01   4.000000E-01   4.000000E-01   4.000000E-01   4.000000E-01   4.000000E-01   4.000000E-01   4.000000E-01   4.000000E-01   4.000000E-01   4.000000E-01   4.000000E-01   4.000000E-01   4.000000E-01   4.000000E-01   4.000000E-01   4.000000E-01   4.000000E-01   4.000000E-01   4.000000E-01   4.000000E-01   4.000000E-01   4.000000E-01   4.000000E-01   4.000000E-01   4.000000E-01   4.000000E-01   4.000000E-01   4.000000E-01   4.000000E-01   4.000000E-01   4.000000E-01   4.000000E-01   4.000000E-01   4.000000E-01   4.000000E-01   4.000000E-01   4.000000E-01   4.000000E-01   4.000000E-01   4.000000E-01   4.000000E-01   4.000000E-01   4.000000E-01   4.000000E-01   4.000000E-01   4.000000E-01   4.000000E-01   4.000000E-01   4.000000E-01   4.000000E-01   4.000000E-01   4.000000E-01   4.000000E-01   4.000000E-01   4.000000E-01   4.000000E-01   4.000000E-01   4.000000E-01   4.000000E-01   4.000000E-01   4.000000E-01   4.000000E-01   4.000000E-01   4.000000E-01   4.000000E-01   4.000000E-01   4.000000E-01   4.000000E-01   4.000000E-01   4.000000E-01   4.000000E-01   4.000000E-01   4.000000E-01   4.000000E-01   4.000000E-01   4.000000E-01   4.000000E-01   4.000000E-01   4.000000E-01   4.000000E-01   4.000000E-01   4.000000E-01   4.000000E-01   4.000000E-01   4.000000E-01   4.000000E-01   4.000000E-01   4.000000E-01   4.000000E-01   4.000000E-01   4.000000E-01   4.000000E-01   4.000000E-01   4.000000E-01   4.000000E-01   4.000000E-01   4.000000E-01   4.000000E-01   4.000000E-01   4.000000E-01   4.000000E-01   4.000000E-01   4.000000E-01   4.000000E-01   4.000000E-01   4.000000E-01   4.000000E-01   4.000000E-01   4.000000E-01   4.000000E-01   4.000000E-01   4.000000E-01   4.000000E-01   4.000000E-01   4.000000E-01   4.000000E-01   4.000000E-01   4.000000E-01   4.000000E-01   4.000000E-01   4.000000E-01   4.000000E-01   4.000000E-01   4.000000E-01   4.000000E-01   4.000000E-01   4.000000E-01   4.000000E-01   4.000000E-01   4.000000E-01   4.000000E-01   4.000000E-01   4.000000E-01   4.000000E-01   4.000000E-01   4.000000E-01   4.000000E-01   4.000000E-01   4.000000E-01   4.000000E-01   4.000000E-01   4.000000E-01   4.000000E-01   4.000000E-01   4.000000E-01   4.000000E-01   4.000000E-01   4.000000E-01   4.000000E-01   4.000000E-01   4.000000E-01   4.000000E-01   4.000000E-01   4.000000E-01   4.000000E-01   4.000000E-01   4.000000E-01   4.000000E-01   4.000000E-01   4.000000E-01   4.000000E-01   4.000000E-01   4.000000E-01   4.000000E-01   4.000000E-01   4.000000E-01   4.000000E-01   4.000000E-01   4.000000E-01   4.000000E-01   4.000000E-01   4.000000E-01   4.000000E-01   4.000000E-01   4.000000E-01   4.000000E-01   4.000000E-01   4.000000E-01   4.000000E-01   4.000000E-01   4.000000E-01   4.000000E-01   4.000000E-01   4.000000E-01   4.000000E-01   4.000000E-01   4.000000E-01   4.000000E-01   4.000000E-01   4.000000E-01   4.000000E-01   4.000000E-01   4.000000E-01   4.000000E-01   4.000000E-01   4.000000E-01   4.000000E-01   4.000000E-01   4.000000E-01   4.000000E-01   4.000000E-01   4.000000E-01   4.000000E-01   4.000000E-01   4.000000E-01   4.000000E-01   4.000000E-01   4.000000E-01   4.000000E-01   4.000000E-01   4.000000E-01   4.000000E-01   4.000000E-01   4.000000E-01   4.000000E-01   4.000000E-01   4.000000E-01   4.000000E-01   4.000000E-01   4.000000E-01   4.000000E-01   4.000000E-01   4.000000E-01   4.000000E-01   4.000000E-01   4.000000E-01   4.000000E-01   4.000000E-01   4.000000E-01   4.000000E-01   4.000000E-01   4.000000E-01   4.000000E-01   4.000000E-01   4.000000E-01   4.000000E-01   4.000000E-01   4.000000E-01   4.000000E-01   4.000000E-01   4.000000E-01   4.000000E-01   4.000000E-01   4.000000E-01   4.000000E-01   4.000000E-01   4.000000E-01   4.000000E-01   4.000000E-01   4.000000E-01   4.000000E-01   4.000000E-01   4.000000E-01   4.000000E-01   4.000000E-01   4.000000E-01   4.000000E-01   4.000000E-01   4.000000E-01   4.000000E-01   4.000000E-01   4.000000E-01   4.000000E-01   4.000000E-01   4.000000E-01   4.000000E-01   4.000000E-01   4.000000E-01   4.000000E-01   4.000000E-01   4.000000E-01   4.000000E-01   4.000000E-01   4.000000E-01   4.000000E-01   4.000000E-01   4.000000E-01   4.000000E-01   4.000000E-01   4.000000E-01   4.000000E-01   4.000000E-01   4.000000E-01   4.000000E-01   4.000000E-01   4.000000E-01   4.000000E-01   4.000000E-01   4.000000E-01   4.000000E-01   4.000000E-01   4.000000E-01   4.000000E-01   4.000000E-01   4.000000E-01   4.000000E-01   4.000000E-01   4.000000E-01   4.000000E-01   4.000000E-01   4.000000E-01   4.000000E-01   4.000000E-01   4.000000E-01   4.000000E-01   4.000000E-01   4.000000E-01   4.000000E-01   4.000000E-01   4.000000E-01   4.000000E-01   4.000000E-01   4.000000E-01   4.000000E-01   4.000000E-01   4.000000E-01   4.000000E-01   4.000000E-01   4.000000E-01   4.000000E-01   4.000000E-01   4.000000E-01   4.000000E-01   4.000000E-01   4.000000E-01   4.000000E-01   4.000000E-01   4.000000E-01   4.000000E-01   4.000000E-01   4.000000E-01   4.000000E-01   4.000000E-01   4.000000E-01   4.000000E-01   4.000000E-01   4.000000E-01   4.000000E-01   4.000000E-01   4.000000E-01   4.000000E-01   4.000000E-01   4.000000E-01   4.000000E-01   4.000000E-01   4.000000E-01   4.000000E-01   4.000000E-01   4.000000E-01   4.000000E-01   4.000000E-01   4.000000E-01   4.000000E-01   4.000000E-01   4.000000E-01   4.000000E-01   4.000000E-01   4.000000E-01   4.000000E-01   4.000000E-01   4.000000E-01   4.000000E-01   4.000000E-01   4.000000E-01   4.000000E-01   4.000000E-01   4.000000E-01   4.000000E-01   4.000000E-01   4.000000E-01   4.000000E-01   4.000000E-01   4.000000E-01   4.000000E-01   4.000000E-01   4.000000E-01   4.000000E-01   4.000000E-01   4.000000E-01   4.000000E-01   4.000000E-01   4.000000E-01   4.000000E-01   4.000000E-01   4.000000E-01   4.000000E-01   4.000000E-01   4.000000E-01   4.000000E-01   4.000000E-01   4.000000E-01   4.000000E-01   4.000000E-01   4.000000E-01   4.000000E-01   4.000000E-01   4.000000E-01   4.000000E-01   4.000000E-01   4.000000E-01   4.000000E-01   4.000000E-01   4.000000E-01   4.000000E-01   4.000000E-01   4.000000E-01   4.000000E-01   4.000000E-01   4.000000E-01   4.000000E-01   4.000000E-01   4.000000E-01   4.000000E-01   4.000000E-01   4.000000E-01   4.000000E-01   4.000000E-01   4.000000E-01   4.000000E-01   4.000000E-01   4.000000E-01   4.000000E-01   4.000000E-01   4.000000E-01   4.000000E-01   4.000000E-01   4.000000E-01   4.000000E-01   4.000000E-01   4.000000E-01   4.000000E-01   4.000000E-01   4.000000E-01   4.000000E-01   4.000000E-01   4.000000E-01   4.000000E-01   4.000000E-01   4.000000E-01   4.000000E-01   4.000000E-01   4.000000E-01   4.000000E-01   4.000000E-01   4.000000E-01   4.000000E-01   4.000000E-01   4.000000E-01   4.000000E-01   4.000000E-01   4.000000E-01   4.000000E-01   4.000000E-01   4.000000E-01   4.000000E-01   4.000000E-01   4.000000E-01   4.000000E-01   4.000000E-01   4.000000E-01   4.000000E-01   4.000000E-01   4.000000E-01   4.000000E-01   4.000000E-01   4.000000E-01   4.000000E-01   4.000000E-01   4.000000E-01   4.000000E-01   4.000000E-01   4.000000E-01   4.000000E-01   4.000000E-01   4.000000E-01   4.000000E-01   4.000000E-01   4.000000E-01   4.000000E-01   4.000000E-01   4.000000E-01   4.000000E-01   4.000000E-01   4.000000E-01   4.000000E-01   4.000000E-01   4.000000E-01   4.000000E-01   4.000000E-01   4.000000E-01   4.000000E-01   4.000000E-01   4.000000E-01   4.000000E-01   4.000000E-01   4.000000E-01   4.000000E-01   4.000000E-01   4.000000E-01   4.000000E-01   4.000000E-01   4.000000E-01   4.000000E-01   4.000000E-01   4.000000E-01   4.000000E-01   4.000000E-01   4.000000E-01   4.000000E-01   4.000000E-01   4.000000E-01   4.000000E-01   4.000000E-01   4.000000E-01   4.000000E-01   4.000000E-01   4.000000E-01   4.000000E-01   4.000000E-01   4.000000E-01   4.000000E-01   4.000000E-01   4.000000E-01   4.000000E-01   4.000000E-01   4.000000E-01   4.000000E-01   4.000000E-01   4.000000E-01   4.000000E-01   4.000000E-01   4.000000E-01   4.000000E-01   4.000000E-01   4.000000E-01   4.000000E-01   4.000000E-01   4.000000E-01   4.000000E-01   4.000000E-01   4.000000E-01   4.000000E-01   4.000000E-01   4.000000E-01   4.000000E-01   4.000000E-01   4.000000E-01   4.000000E-01   4.000000E-01   4.000000E-01   4.000000E-01   4.000000E-01   4.000000E-01   4.000000E-01   4.000000E-01   4.000000E-01   4.000000E-01   4.000000E-01   4.000000E-01   4.000000E-01   4.000000E-01   4.000000E-01   4.000000E-01   4.000000E-01   4.000000E-01   4.000000E-01   4.000000E-01   4.000000E-01   4.000000E-01   4.000000E-01   4.000000E-01   4.000000E-01   4.000000E-01   4.000000E-01   4.000000E-01   4.000000E-01   4.000000E-01   4.000000E-01   4.000000E-01   4.000000E-01   4.000000E-01   4.000000E-01   4.000000E-01   4.000000E-01   4.000000E-01   4.000000E-01   4.000000E-01   4.000000E-01   4.000000E-01   4.000000E-01   4.000000E-01   4.000000E-01   4.000000E-01   4.000000E-01   4.000000E-01   4.000000E-01   4.000000E-01   4.000000E-01   4.000000E-01   4.000000E-01   4.000000E-01   4.000000E-01   4.000000E-01   4.000000E-01   4.000000E-01   4.000000E-01   4.000000E-01   4.000000E-01   4.000000E-01   4.000000E-01   4.000000E-01   4.000000E-01   4.000000E-01   4.000000E-01   4.000000E-01   4.000000E-01   4.000000E-01   4.000000E-01   4.000000E-01   4.000000E-01   4.000000E-01   4.000000E-01   4.000000E-01   4.000000E-01   4.000000E-01   4.000000E-01   4.000000E-01   4.000000E-01   4.000000E-01   4.000000E-01   4.000000E-01   4.000000E-01   4.000000E-01   4.000000E-01   4.000000E-01   4.000000E-01   4.000000E-01   4.000000E-01   4.000000E-01   4.000000E-01   4.000000E-01   4.000000E-01   4.000000E-01   4.000000E-01   4.000000E-01   4.000000E-01   4.000000E-01   4.000000E-01   4.000000E-01   4.000000E-01   4.000000E-01   4.000000E-01   4.000000E-01   4.000000E-01   4.000000E-01   4.000000E-01   4.000000E-01   4.000000E-01   4.000000E-01   4.000000E-01   4.000000E-01   4.000000E-01   4.000000E-01   4.000000E-01   4.000000E-01   4.000000E-01   4.000000E-01   4.000000E-01   4.000000E-01   4.000000E-01   4.000000E-01   4.000000E-01   4.000000E-01   4.000000E-01   4.000000E-01   4.000000E-01   4.000000E-01   4.000000E-01   4.000000E-01   4.000000E-01   4.000000E-01   4.000000E-01   4.000000E-01   4.000000E-01   4.000000E-01   4.000000E-01   4.000000E-01   4.000000E-01   4.000000E-01   4.000000E-01   4.000000E-01   4.000000E-01   4.000000E-01   4.000000E-01   4.000000E-01   4.000000E-01   4.000000E-01   4.000000E-01   4.000000E-01   4.000000E-01   4.000000E-01   4.000000E-01   4.000000E-01   4.000000E-01   4.000000E-01   4.000000E-01   4.000000E-01   4.000000E-01   4.000000E-01   4.000000E-01   4.000000E-01   4.000000E-01   4.000000E-01   4.000000E-01   4.000000E-01   4.000000E-01   4.000000E-01   4.000000E-01   4.000000E-01   4.000000E-01   4.000000E-01   4.000000E-01   4.000000E-01   4.000000E-01   4.000000E-01   4.000000E-01   4.000000E-01   4.000000E-01   4.000000E-01   4.000000E-01   4.000000E-01   4.000000E-01   4.000000E-01   4.000000E-01   4.000000E-01   4.000000E-01   4.000000E-01   4.000000E-01   4.000000E-01   4.000000E-01   4.000000E-01   4.000000E-01   4.000000E-01   4.000000E-01   4.000000E-01   4.000000E-01   4.000000E-01   4.000000E-01   4.000000E-01   4.000000E-01   4.000000E-01   4.000000E-01   4.000000E-01   4.000000E-01   4.000000E-01   4.000000E-01   4.000000E-01   4.000000E-01   4.000000E-01   4.000000E-01   4.000000E-01   4.000000E-01   4.000000E-01   4.000000E-01   4.000000E-01   4.000000E-01   4.000000E-01   4.000000E-01   4.000000E-01   4.000000E-01   4.000000E-01   4.000000E-01   4.000000E-01   4.000000E-01   4.000000E-01   4.000000E-01   4.000000E-01   4.000000E-01   4.000000E-01   4.000000E-01   4.000000E-01   4.000000E-01   4.000000E-01   4.000000E-01   4.000000E-01   4.000000E-01   4.000000E-01   4.000000E-01   4.000000E-01   4.000000E-01   4.000000E-01   4.000000E-01   4.000000E-01   4.000000E-01   4.000000E-01   4.000000E-01   4.000000E-01   4.000000E-01   4.000000E-01   4.000000E-01   4.000000E-01   4.000000E-01   4.000000E-01   4.000000E-01   4.000000E-01   4.000000E-01   4.000000E-01   4.000000E-01   4.000000E-01   4.000000E-01   4.000000E-01   4.000000E-01   4.000000E-01   4.000000E-01   4.000000E-01   4.000000E-01   4.000000E-01   4.000000E-01   4.000000E-01   4.000000E-01   4.000000E-01   4.000000E-01   4.000000E-01   4.000000E-01   4.000000E-01   4.000000E-01   4.000000E-01   4.000000E-01   4.000000E-01   4.000000E-01   4.000000E-01   4.000000E-01   4.000000E-01   4.000000E-01   4.000000E-01   4.000000E-01   4.000000E-01   4.000000E-01   4.000000E-01   4.000000E-01   4.000000E-01   4.000000E-01   4.000000E-01   4.000000E-01   4.000000E-01   4.000000E-01   4.000000E-01   4.000000E-01   4.000000E-01   4.000000E-01   4.000000E-01   4.000000E-01   4.000000E-01   4.000000E-01   4.000000E-01   4.000000E-01   4.000000E-01   4.000000E-01   4.000000E-01   4.000000E-01   4.000000E-01   4.000000E-01   4.000000E-01   4.000000E-01   4.000000E-01   4.000000E-01   4.000000E-01   4.000000E-01   4.000000E-01   4.000000E-01   4.000000E-01   4.000000E-01   4.000000E-01   4.000000E-01   4.000000E-01   4.000000E-01   4.000000E-01   4.000000E-01   4.000000E-01   4.000000E-01   4.000000E-01   4.000000E-01   4.000000E-01   4.000000E-01   4.000000E-01   4.000000E-01   4.000000E-01   4.000000E-01   4.000000E-01   4.000000E-01   4.000000E-01   4.000000E-01   4.000000E-01   4.000000E-01   4.000000E-01   4.000000E-01   4.000000E-01   4.000000E-01   4.000000E-01   4.000000E-01   4.000000E-01   4.000000E-01   4.000000E-01   4.000000E-01   4.000000E-01   4.000000E-01   4.000000E-01   4.000000E-01   4.000000E-01   4.000000E-01   4.000000E-01   4.000000E-01   4.000000E-01   4.000000E-01   4.000000E-01   4.000000E-01   4.000000E-01   4.000000E-01   4.000000E-01   4.000000E-01   4.000000E-01   4.000000E-01   4.000000E-01   4.000000E-01   4.000000E-01   4.000000E-01   4.000000E-01   4.000000E-01   4.000000E-01   4.000000E-01   4.000000E-01   4.000000E-01   4.000000E-01   4.000000E-01   4.000000E-01   4.000000E-01   4.000000E-01   4.000000E-01   4.000000E-01   4.000000E-01   4.000000E-01   4.000000E-01   4.000000E-01   4.000000E-01   4.000000E-01   4.000000E-01   4.000000E-01   4.000000E-01   4.000000E-01   4.000000E-01   4.000000E-01   4.000000E-01   4.000000E-01   4.000000E-01   4.000000E-01   4.000000E-01   4.000000E-01   4.000000E-01   4.000000E-01   4.000000E-01   4.000000E-01   4.000000E-01   4.000000E-01   4.000000E-01   4.000000E-01   4.000000E-01   4.000000E-01   4.000000E-01   4.000000E-01   4.000000E-01   4.000000E-01   4.000000E-01   4.000000E-01   4.000000E-01   4.000000E-01   4.000000E-01   4.000000E-01   4.000000E-01   4.000000E-01   4.000000E-01   4.000000E-01   4.000000E-01   4.000000E-01   4.000000E-01   4.000000E-01   4.000000E-01   4.000000E-01   4.000000E-01   4.000000E-01   4.000000E-01   4.000000E-01   4.000000E-01   4.000000E-01   4.000000E-01   4.000000E-01   4.000000E-01   4.000000E-01   4.000000E-01   4.000000E-01   4.000000E-01   4.000000E-01   4.000000E-01   4.000000E-01   4.000000E-01   4.000000E-01   4.000000E-01   4.000000E-01   4.000000E-01   4.000000E-01   4.000000E-01   4.000000E-01   4.000000E-01   4.000000E-01   4.000000E-01   4.000000E-01   4.000000E-01   4.000000E-01   4.000000E-01   4.000000E-01   4.000000E-01   4.000000E-01   4.000000E-01   4.000000E-01   4.000000E-01   4.000000E-01   4.000000E-01   4.000000E-01   4.000000E-01   4.000000E-01   4.000000E-01   4.000000E-01   4.000000E-01   4.000000E-01   4.000000E-01   4.000000E-01   4.000000E-01   4.000000E-01   4.000000E-01   4.000000E-01   4.000000E-01   4.000000E-01   4.000000E-01   4.000000E-01   4.000000E-01   4.000000E-01   4.000000E-01   4.000000E-01   4.000000E-01   4.000000E-01   4.000000E-01   4.000000E-01   4.000000E-01   4.000000E-01   4.000000E-01   4.000000E-01   4.000000E-01   4.000000E-01   4.000000E-01   4.000000E-01   4.000000E-01   4.000000E-01   4.000000E-01   4.000000E-01   4.000000E-01   4.000000E-01   4.000000E-01   4.000000E-01   4.000000E-01   4.000000E-01   