<?xml version="1.0"?>
<!-- Time =  0.0000000000000000E+00s -->
<VTKFile type="PolyData" version="0.1" byte_order="LittleEndian">
<PolyData>
<Piece NumberOfPoints="0000002400" NumberOfVerts="0" NumberOfLines="0" NumberOfStrips="0" NumberOfPolys="0">
<Points>
<DataArray type="Float32" Name="Position" NumberOfComponents="3" format="ascii">
  2.100000E-01   2.045803E-01   2.100000E-01   6.300000E-01   2.045803E-01   2.100000E-01   1.050000E+00   2.045803E-01   2.100000E-01   1.470000E+00   2.045803E-01   2.100000E-01   1.890000E+00   2.045803E-01   2.100000E-01   2.310000E+00   2.045803E-01   2.100000E-01   2.730000E+00   2.045803E-01   2.100000E-01   3.150000E+00   2.045803E-01   2.100000E-01   3.570000E+00   2.045803E-01   2.100000E-01   3.990000E+00   2.045803E-01   2.100000E-01   4.410000E+00   2.045803E-01   2.100000E-01   4.830000E+00   2.045803E-01   2.100000E-01   5.250000E+00   2.045803E-01   2.100000E-01   5.670000E+00   2.045803E-01   2.100000E-01   6.090000E+00   2.045803E-01   2.100000E-01   6.510000E+00   2.045803E-01   2.100000E-01   6.930000E+00   2.045803E-01   2.100000E-01   7.350000E+00   2.045803E-01   2.100000E-01   7.770000E+00   2.045803E-01   2.100000E-01   8.190000E+00   2.045803E-01   2.100000E-01   8.610000E+00   2.045803E-01   2.100000E-01   9.030000E+00   2.045803E-01   2.100000E-01   9.450000E+00   2.045803E-01   2.100000E-01   9.870000E+00   2.045803E-01   2.100000E-01   1.029000E+01   2.045803E-01   2.100000E-01   1.071000E+01   2.045803E-01   2.100000E-01   1.113000E+01   2.045803E-01   2.100000E-01   1.155000E+01   2.045803E-01   2.100000E-01   1.197000E+01   2.045803E-01   2.100000E-01   1.239000E+01   2.045803E-01   2.100000E-01   1.281000E+01   2.045803E-01   2.100000E-01   1.323000E+01   2.045803E-01   2.100000E-01   1.365000E+01   2.045803E-01   2.100000E-01   1.407000E+01   2.045803E-01   2.100000E-01   1.449000E+01   2.045803E-01   2.100000E-01   2.100000E-01   6.080387E-01   2.100000E-01   6.300000E-01   6.080387E-01   2.100000E-01   1.050000E+00   6.080387E-01   2.100000E-01   1.470000E+00   6.080387E-01   2.100000E-01   1.890000E+00   6.080387E-01   2.100000E-01   2.310000E+00   6.080387E-01   2.100000E-01   2.730000E+00   6.080387E-01   2.100000E-01   3.150000E+00   6.080387E-01   2.100000E-01   3.570000E+00   6.080387E-01   2.100000E-01   3.990000E+00   6.080387E-01   2.100000E-01   4.410000E+00   6.080387E-01   2.100000E-01   4.830000E+00   6.080387E-01   2.100000E-01   5.250000E+00   6.080387E-01   2.100000E-01   5.670000E+00   6.080387E-01   2.100000E-01   6.090000E+00   6.080387E-01   2.100000E-01   6.510000E+00   6.080387E-01   2.100000E-01   6.930000E+00   6.080387E-01   2.100000E-01   7.350000E+00   6.080387E-01   2.100000E-01   7.770000E+00   6.080387E-01   2.100000E-01   8.190000E+00   6.080387E-01   2.100000E-01   8.610000E+00   6.080387E-01   2.100000E-01   9.030000E+00   6.080387E-01   2.100000E-01   9.450000E+00   6.080387E-01   2.100000E-01   9.870000E+00   6.080387E-01   2.100000E-01   1.029000E+01   6.080387E-01   2.100000E-01   1.071000E+01   6.080387E-01   2.100000E-01   1.113000E+01   6.080387E-01   2.100000E-01   1.155000E+01   6.080387E-01   2.100000E-01   1.197000E+01   6.080387E-01   2.100000E-01   1.239000E+01   6.080387E-01   2.100000E-01   1.281000E+01   6.080387E-01   2.100000E-01   1.323000E+01   6.080387E-01   2.100000E-01   1.365000E+01   6.080387E-01   2.100000E-01   1.407000E+01   6.080387E-01   2.100000E-01   1.449000E+01   6.080387E-01   2.100000E-01   2.100000E-01   1.028039E+00   2.100000E-01   6.300000E-01   1.028039E+00   2.100000E-01   1.050000E+00   1.028039E+00   2.100000E-01   1.470000E+00   1.028039E+00   2.100000E-01   1.890000E+00   1.028039E+00   2.100000E-01   2.310000E+00   1.028039E+00   2.100000E-01   2.730000E+00   1.028039E+00   2.100000E-01   3.150000E+00   1.028039E+00   2.100000E-01   3.570000E+00   1.028039E+00   2.100000E-01   3.990000E+00   1.028039E+00   2.100000E-01   4.410000E+00   1.028039E+00   2.100000E-01   4.830000E+00   1.028039E+00   2.100000E-01   5.250000E+00   1.028039E+00   2.100000E-01   5.670000E+00   1.028039E+00   2.100000E-01   6.090000E+00   1.028039E+00   2.100000E-01   6.510000E+00   1.028039E+00   2.100000E-01   6.930000E+00   1.028039E+00   2.100000E-01   7.350000E+00   1.028039E+00   2.100000E-01   7.770000E+00   1.028039E+00   2.100000E-01   8.190000E+00   1.028039E+00   2.100000E-01   8.610000E+00   1.028039E+00   2.100000E-01   9.030000E+00   1.028039E+00   2.100000E-01   9.450000E+00   1.028039E+00   2.100000E-01   9.870000E+00   1.028039E+00   2.100000E-01   1.029000E+01   1.028039E+00   2.100000E-01   1.071000E+01   1.028039E+00   2.100000E-01   1.113000E+01   1.028039E+00   2.100000E-01   1.155000E+01   1.028039E+00   2.100000E-01   1.197000E+01   1.028039E+00   2.100000E-01   1.239000E+01   1.028039E+00   2.100000E-01   1.281000E+01   1.028039E+00   2.100000E-01   1.323000E+01   1.028039E+00   2.100000E-01   1.365000E+01   1.028039E+00   2.100000E-01   1.407000E+01   1.028039E+00   2.100000E-01   1.449000E+01   1.028039E+00   2.100000E-01   2.100000E-01   2.045803E-01   6.300000E-01   6.300000E-01   2.045803E-01   6.300000E-01   1.050000E+00   2.045803E-01   6.300000E-01   1.470000E+00   2.045803E-01   6.300000E-01   1.890000E+00   2.045803E-01   6.300000E-01   2.310000E+00   2.045803E-01   6.300000E-01   2.730000E+00   2.045803E-01   6.300000E-01   3.150000E+00   2.045803E-01   6.300000E-01   3.570000E+00   2.045803E-01   6.300000E-01   3.990000E+00   2.045803E-01   6.300000E-01   4.410000E+00   2.045803E-01   6.300000E-01   4.830000E+00   2.045803E-01   6.300000E-01   5.250000E+00   2.045803E-01   6.300000E-01   5.670000E+00   2.045803E-01   6.300000E-01   6.090000E+00   2.045803E-01   6.300000E-01   6.510000E+00   2.045803E-01   6.300000E-01   6.930000E+00   2.045803E-01   6.300000E-01   7.350000E+00   2.045803E-01   6.300000E-01   7.770000E+00   2.045803E-01   6.300000E-01   8.190000E+00   2.045803E-01   6.300000E-01   8.610000E+00   2.045803E-01   6.300000E-01   9.030000E+00   2.045803E-01   6.300000E-01   9.450000E+00   2.045803E-01   6.300000E-01   9.870000E+00   2.045803E-01   6.300000E-01   1.029000E+01   2.045803E-01   6.300000E-01   1.071000E+01   2.045803E-01   6.300000E-01   1.113000E+01   2.045803E-01   6.300000E-01   1.155000E+01   2.045803E-01   6.300000E-01   1.197000E+01   2.045803E-01   6.300000E-01   1.239000E+01   2.045803E-01   6.300000E-01   1.281000E+01   2.045803E-01   6.300000E-01   1.323000E+01   2.045803E-01   6.300000E-01   1.365000E+01   2.045803E-01   6.300000E-01   1.407000E+01   2.045803E-01   6.300000E-01   1.449000E+01   2.045803E-01   6.300000E-01   2.100000E-01   6.080387E-01   6.300000E-01   6.300000E-01   6.080387E-01   6.300000E-01   1.050000E+00   6.080387E-01   6.300000E-01   1.470000E+00   6.080387E-01   6.300000E-01   1.890000E+00   6.080387E-01   6.300000E-01   2.310000E+00   6.080387E-01   6.300000E-01   2.730000E+00   6.080387E-01   6.300000E-01   3.150000E+00   6.080387E-01   6.300000E-01   3.570000E+00   6.080387E-01   6.300000E-01   3.990000E+00   6.080387E-01   6.300000E-01   4.410000E+00   6.080387E-01   6.300000E-01   4.830000E+00   6.080387E-01   6.300000E-01   5.250000E+00   6.080387E-01   6.300000E-01   5.670000E+00   6.080387E-01   6.300000E-01   6.090000E+00   6.080387E-01   6.300000E-01   6.510000E+00   6.080387E-01   6.300000E-01   6.930000E+00   6.080387E-01   6.300000E-01   7.350000E+00   6.080387E-01   6.300000E-01   7.770000E+00   6.080387E-01   6.300000E-01   8.190000E+00   6.080387E-01   6.300000E-01   8.610000E+00   6.080387E-01   6.300000E-01   9.030000E+00   6.080387E-01   6.300000E-01   9.450000E+00   6.080387E-01   6.300000E-01   9.870000E+00   6.080387E-01   6.300000E-01   1.029000E+01   6.080387E-01   6.300000E-01   1.071000E+01   6.080387E-01   6.300000E-01   1.113000E+01   6.080387E-01   6.300000E-01   1.155000E+01   6.080387E-01   6.300000E-01   1.197000E+01   6.080387E-01   6.300000E-01   1.239000E+01   6.080387E-01   6.300000E-01   1.281000E+01   6.080387E-01   6.300000E-01   1.323000E+01   6.080387E-01   6.300000E-01   1.365000E+01   6.080387E-01   6.300000E-01   1.407000E+01   6.080387E-01   6.300000E-01   1.449000E+01   6.080387E-01   6.300000E-01   2.100000E-01   1.028039E+00   6.300000E-01   6.300000E-01   1.028039E+00   6.300000E-01   1.050000E+00   1.028039E+00   6.300000E-01   1.470000E+00   1.028039E+00   6.300000E-01   1.890000E+00   1.028039E+00   6.300000E-01   2.310000E+00   1.028039E+00   6.300000E-01   2.730000E+00   1.028039E+00   6.300000E-01   3.150000E+00   1.028039E+00   6.300000E-01   3.570000E+00   1.028039E+00   6.300000E-01   3.990000E+00   1.028039E+00   6.300000E-01   4.410000E+00   1.028039E+00   6.300000E-01   4.830000E+00   1.028039E+00   6.300000E-01   5.250000E+00   1.028039E+00   6.300000E-01   5.670000E+00   1.028039E+00   6.300000E-01   6.090000E+00   1.028039E+00   6.300000E-01   6.510000E+00   1.028039E+00   6.300000E-01   6.930000E+00   1.028039E+00   6.300000E-01   7.350000E+00   1.028039E+00   6.300000E-01   7.770000E+00   1.028039E+00   6.300000E-01   8.190000E+00   1.028039E+00   6.300000E-01   8.610000E+00   1.028039E+00   6.300000E-01   9.030000E+00   1.028039E+00   6.300000E-01   9.450000E+00   1.028039E+00   6.300000E-01   9.870000E+00   1.028039E+00   6.300000E-01   1.029000E+01   1.028039E+00   6.300000E-01   1.071000E+01   1.028039E+00   6.300000E-01   1.113000E+01   1.028039E+00   6.300000E-01   1.155000E+01   1.028039E+00   6.300000E-01   1.197000E+01   1.028039E+00   6.300000E-01   1.239000E+01   1.028039E+00   6.300000E-01   1.281000E+01   1.028039E+00   6.300000E-01   1.323000E+01   1.028039E+00   6.300000E-01   1.365000E+01   1.028039E+00   6.300000E-01   1.407000E+01   1.028039E+00   6.300000E-01   1.449000E+01   1.028039E+00   6.300000E-01   2.100000E-01   2.045803E-01   1.050000E+00   6.300000E-01   2.045803E-01   1.050000E+00   1.050000E+00   2.045803E-01   1.050000E+00   1.470000E+00   2.045803E-01   1.050000E+00   1.890000E+00   2.045803E-01  
[...]
<PointData Scalars="Diameter" Vectors="Velocity">
<DataArray type="Float32" Name="Diameter" format="ascii">
  4.000000E-01   4.000000E-01   4.000000E-01   4.000000E-01   4.000000E-01   4.000000E-01   4.000000E-01   4.000000E-01   4.000000E-01   4.000000E-01   4.000000E-01   4.000000E-01   4.000000E-01   4.000000E-01   4.000000E-01   4.000000E-01   4.000000E-01   4.000000E-01   4.000000E-01   4.000000E-01   4.000000E-01   4.000000E-01   4.000000E-01   4.000000E-01   4.000000E-01   4.000000E-01   4.000000E-01   4.000000E-01   4.000000E-01   4.000000E-01   4.000000E-01   4.000000E-01   4.000000E-01   4.000000E-01   4.000000E-01   4.000000E-01   4.000000E-01   4.000000E-01   4.000000E-01   4.000000E-01   4.000000E-01   4.000000E-01   4.000000E-01   4.000000E-01   4.000000E-01   4.000000E-01   4.000000E-01   4.000000E-01   4.000000E-01   4.000000E-01   4.000000E-01   4.000000E-01   4.000000E-01   4.000000E-01   4.000000E-01   4.000000E-01   4.000000E-01   4.000000E-01   4.000000E-01   4.000000E-01   4.000000E-01   4.000000E-01   4.000000E-01   4.000000E-01   4.000000E-01   4.000000E-01   4.000000E-01   4.000000E-01   4.000000E-01   4.000000E-01   4.000000E-01   4.000000E-01   4.000000E-01   4.000000E-01   4.000000E-01   4.000000E-01   4.000000E-01   4.000000E-01   4.000000E-01   4.000000E-01   4.000000E-01   4.000000E-01   4.000000E-01   4.000000E-01   4.000000E-01   4.000000E-01   4.000000E-01   4.000000E-01   4.000000E-01   4.000000E-01   4.000000E-01   4.000000E-01   4.000000E-01   4.000000E-01   4.000000E-01   4.000000E-01   4.000000E-01   4.000000E-01   4.000000E-01   4.000000E-01   4.000000E-01   4.000000E-01   4.000000E-01   4.000000E-01   4.000000E-01   4.000000E-01   4.000000E-01   4.000000E-01   4.000000E-01   4.000000E-01   4.000000E-01   4.000000E-01   4.000000E-01   4.000000E-01   4.000000E-01   4.000000E-01   4.000000E-01   4.000000E-01   4.000000E-01   4.000000E-01   4.000000E-01   4.000000E-01   4.000000E-01   4.000000E-01   4.000000E-01   4.000000E-01   4.000000E-01   4.000000E-01   4.000000E-01   4.000000E-01   4.000000E-01   4.000000E-01   4.000000E-01   4.000000E-01   4.000000E-01   4.000000E-01   4.000000E-01   4.000000E-01   4.000000E-01   4.000000E-01   4.000000E-01   4.000000E-01   4.000000E-01   4.000000E-01   4.000000E-01   4.000000E-01   4.000000E-01   4.000000E-01   4.000000E-01   4.000000E-01   4.000000E-01   4.000000E-01   4.000000E-01   4.000000E-01   4.000000E-01   4.000000E-01   4.000000E-01   4.000000E-01   4.000000E-01   4.000000E-01   4.000000E-01   4.000000E-01   4.000000E-01   4.000000E-01   4.000000E-01   4.000000E-01   4.000000E-01   4.000000E-01   4.000000E-01   4.000000E-01   4.000000E-01   4.000000E-01   4.000000E-01   4.000000E-01   4.000000E-01   4.000000E-01   4.000000E-01   4.000000E-01   4.000000E-01   4.000000E-01   4.000000E-01   4.000000E-01   4.000000E-01   4.000000E-01   4.000000E-01   4.000000E-01   4.000000E-01   4.000000E-01   4.000000E-01   4.000000E-01   4.000000E-01   4.000000E-01   4.000000E-01   4.000000E-01   4.000000E-01   4.000000E-01   4.000000E-01   4.000000E-01   4.000000E-01   4.000000E-01   4.000000E-01   4.000000E-01   4.000000E-01   4.000000E-01   4.000000E-01   4.000000E-01   4.000000E-01   4.000000E-01   4.000000E-01   4.000000E-01   4.000000E-01   4.000000E-01   4.000000E-01   4.000000E-01   4.000000E-01   4.000000E-01   4.000000E-01   4.000000E-01   4.000000E-01   4.000000E-01   4.000000E-01   4.000000E-01   4.000000E-01   4.000000E-01   4.000000E-01   4.000000E-01   4.000000E-01   4.000000E-01   4.000000E-01   4.000000E-01   4.000000E-01   4.000000E-01   4.000000E-01   4.000000E-01   4.000000E-01   4.000000E-01   4.000000E-01   4.000000E-01   4.000000E-01   4.000000E-01   4.000000E-01   4.000000E-01   4.000000E-01   4.000000E-01   4.000000E-01   4.000000E-01   4.000000E-01   4.000000E-01   4.000000E-01   4.000000E-01   4.000000E-01   4.000000E-01   4.000000E-01   4.000000E-01   4.000000E-01   4.000000E-01   4.000000E-01   4.000000E-01   4.000000E-01   4.000000E-01   4.000000E-01   4.000000E-01   4.000000E-01   4.000000E-01   4.000000E-01   4.000000E-01   4.000000E-01   4.000000E-01   4.000000E-01   4.000000E-01   4.000000E-01   4.000000E-01   4.000000E-01   4.000000E-01   4.000000E-01   4.000000E-01   4.000000E-01   4.000000E-01   4.000000E-01   4.000000E-01   4.000000E-01   4.000000E-01   4.000000E-01   4.000000E-01   4.000000E-01   4.000000E-01   4.000000E-01   4.000000E-01   4.000000E-01   4.000000E-01   4.000000E-01   4.000000E-01   4.000000E-01   4.000000E-01   4.000000E-01   4.000000E-01   4.000000E-01   4.000000E-01   4.000000E-01   4.000000E-01   4.000000E-01   4.000000E-01   4.000000E-01   4.000000E-01   4.000000E-01   4.000000E-01   4.000000E-01   4.000000E-01   4.000000E-01   4.000000E-01   4.000000E-01   4.000000E-01   4.000000E-01   4.000000E-01   4.000000E-01   4.000000E-01   4.000000E-01   4.000000E-01   4.000000E-01   4.000000E-01   4.000000E-01   4.000000E-01   4.000000E-01   4.000000E-01   4.000000E-01   4.000000E-01   4.000000E-01   4.000000E-01   4.000000E-01   4.000000E-01   4.000000E-01   4.000000E-01   4.000000E-01   4.000000E-01   4.000000E-01   4.000000E-01   4.000000E-01   4.000000E-01   4.000000E-01   4.000000E-01   4.000000E-01   4.000000E-01   4.000000E-01   4.000000E-01   4.000000E-01   4.000000E-01   4.000000E-01   4.000000E-01   4.000000E-01   4.000000E-01   4.000000E-01   4.000000E-01   4.000000E-01   4.000000E-01   4.000000E-01   4.000000E-01   4.000000E-01   4.000000E-01   4.000000E-01   4.000000E-01   4.000000E-01   4.000000E-01   4.000000E-01   4.000000E-01   4.000000E-01   4.000000E-01   4.000000E-01   4.000000E-01   4.000000E-01   4.000000E-01   4.000000E-01   4.000000E-01   4.000000E-01   4.000000E-01   4.000000E-01   4.000000E-01   4.000000E-01   4.000000E-01   4.000000E-01   4.000000E-01   4.000000E-01   4.000000E-01   4.000000E-01   4.000000E-01   4.000000E-01   4.000000E-01   4.000000E-01   4.000000E-01   4.000000E-01   4.000000E-01   4.000000E-01   4.000000E-01   4.000000E-01   4.000000E-01   4.000000E-01   4.000000E-01   4.000000E-01   4.000000E-01   4.000000E-01   4.000000E-01   4.000000E-01   4.000000E-01   4.000000E-01   4.000000E-01   4.000000E-01   4.000000E-01   4.000000E-01   4.000000E-01   4.000000E-01   4.000000E-01   4.000000E-01   4.000000E-01   4.000000E-01   4.000000E-01   4.000000E-01   4.000000E-01   4.000000E-01   4.000000E-01   4.000000E-01   4.000000E-01   4.000000E-01   4.000000E-01   4.000000E-01   4.000000E-01   4.000000E-01   4.000000E-01   4.000000E-01   4.000000E-01   4.000000E-01   4.000000E-01   4.000000E-01   4.000000E-01   4.000000E-01   4.000000E-01   4.000000E-01   4.000000E-01   4.000000E-01   4.000000E-01   4.000000E-01   4.000000E-01   4.000000E-01   4.000000E-01   4.000000E-01   4.000000E-01   4.000000E-01   4.000000E-01   4.000000E-01   4.000000E-01   4.000000E-01   4.000000E-01   4.000000E-01   4.000000E-01   4.000000E-01   4.000000E-01   4.000000E-01   4.000000E-01   4.000000E-01   4.000000E-01   4.000000E-01   4.000000E-01   4.000000E-01   4.000000E-01   4.000000E-01   4.000000E-01   4.000000E-01   4.000000E-01   4.000000E-01   4.000000E-01   4.000000E-01   4.000000E-01   4.000000E-01   4.000000E-01   4.000000E-01   4.000000E-01   4.000000E-01   4.000000E-01   4.000000E-01   4.000000E-01   4.000000E-01   4.000000E-01   4.000000E-01   4.000000E-01   4.000000E-01   4.000000E-01   4.000000E-01   4.000000E-01   4.000000E-01   4.000000E-01   4.000000E-01   4.000000E-01   4.000000E-01   4.000000E-01   4.000000E-01   4.000000E-01   4.000000E-01   4.000000E-01   4.000000E-01   4.000000E-01   4.000000E-01   4.000000E-01   4.000000E-01   4.000000E-01   4.000000E-01   4.000000E-01   4.000000E-01   4.000000E-01   4.000000E-01   4.000000E-01   4.000000E-01   4.000000E-01   4.000000E-01   4.000000E-01   4.000000E-01   4.000000E-01   4.000000E-01   4.000000E-01   4.000000E-01   4.000000E-01   4.000000E-01   4.000000E-01   4.000000E-01   4.000000E-01   4.000000E-01   4.000000E-01   4.000000E-01   4.000000E-01   4.000000E-01   4.000000E-01   4.000000E-01   4.000000E-01   4.000000E-01   4.000000E-01   4.000000E-01   4.000000E-01   4.000000E-01   4.000000E-01   4.000000E-01   4.000000E-01   4.000000E-01   4.000000E-01   4.000000E-01   4.000000E-01   4.000000E-01   4.000000E-01   4.000000E-01   4.000000E-01   4.000000E-01   4.000000E-01   4.000000E-01   4.000000E-01   4.000000E-01   4.000000E-01   4.000000E-01   4.000000E-01   4.000000E-01   4.000000E-01   4.000000E-01   4.000000E-01   4.000000E-01   4.000000E-01   4.000000E-01   4.000000E-01   4.000000E-01   4.000000E-01   4.000000E-01   4.000000E-01   4.000000E-01   4.000000E-01   4.000000E-01   4.000000E-01   4.000000E-01   4.000000E-01   4.000000E-01   4.000000E-01   4.000000E-01   4.000000E-01   4.000000E-01   4.000000E-01   4.000000E-01   4.000000E-01   4.000000E-01   4.000000E-01   4.000000E-01   4.000000E-01   4.000000E-01   4.000000E-01   4.000000E-01   4.000000E-01   4.000000E-01   4.000000E-01   4.000000E-01   4.000000E-01   4.000000E-01   4.000000E-01   4.000000E-01   4.000000E-01   4.000000E-01   4.000000E-01   4.000000E-01   4.000000E-01   4.000000E-01   4.000000E-01   4.000000E-01   4.000000E-01   4.000000E-01   4.000000E-01   4.000000E-01   4.000000E-01   4.000000E-01   4.000000E-01   4.000000E-01   4.000000E-01   4.000000E-01   4.000000E-01   4.000000E-01   4.000000E-01   4.000000E-01   4.000000E-01   4.000000E-01   4.000000E-01   4.000000E-01   4.000000E-01   4.000000E-01   4.000000E-01   4.000000E-01   4.000000E-01   4.000000E-01   4.000000E-01   4.000000E-01   4.000000E-01   4.000000E-01   4.000000E-01   4.000000E-01   4.000000E-01   4.000000E-01   4.000000E-01   4.000000E-01   4.000000E-01   4.000000E-01   4.000000E-01   4.000000E-01   4.000000E-01   4.000000E-01   4.000000E-01   4.000000E-01   4.000000E-01   4.000000E-01   4.000000E-01   4.000000E-01   4.000000E-01   4.000000E-01   4.000000E-01   4.000000E-01   4.000000E-01   4.000000E-01   4.000000E-01   4.000000E-01   4.000000E-01   4.000000E-01   4.000000E-01   4.000000E-01   4.000000E-01   4.000000E-01   4.000000E-01   4.000000E-01   4.000000E-01   4.000000E-01   4.000000E-01   4.000000E-01   4.000000E-01   4.000000E-01   4.000000E-01   4.000000E-01   4.000000E-01   4.000000E-01   4.000000E-01   4.000000E-01   4.000000E-01   4.000000E-01   4.000000E-01   4.000000E-01   4.000000E-01   4.000000E-01   4.000000E-01   4.000000E-01   4.000000E-01   4.000000E-01   4.000000E-01   4.000000E-01   4.000000E-01   4.000000E-01   4.000000E-01   4.000000E-01   4.000000E-01   4.000000E-01   4.000000E-01   4.000000E-01   4.000000E-01   4.000000E-01   4.000000E-01   4.000000E-01   4.000000E-01   4.000000E-01   4.000000E-01   4.000000E-01   4.000000E-01   4.000000E-01   4.000000E-01   4.000000E-01   4.000000E-01   4.000000E-01   4.000000E-01   4.000000E-01   4.000000E-01   4.000000E-01   4.000000E-01   4.000000E-01   4.000000E-01   4.000000E-01   4.000000E-01   4.000000E-01   4.000000E-01   4.000000E-01   4.000000E-01   4.000000E-01   4.000000E-01   4.000000E-01   4.000000E-01   4.000000E-01   4.000000E-01   4.000000E-01   4.000000E-01   4.000000E-01   4.000000E-01   4.000000E-01   4.000000E-01   4.000000E-01   4.000000E-01   4.000000E-01   4.000000E-01   4.000000E-01   4.000000E-01   4.000000E-01   4.000000E-01   4.000000E-01   4.000000E-01   4.000000E-01   4.000000E-01   4.000000E-01   4.000000E-01   4.000000E-01   4.000000E-01   4.000000E-01   4.000000E-01   4.000000E-01   4.000000E-01   4.000000E-01   4.000000E-01   4.000000E-01   4.000000E-01   4.000000E-01   4.000000E-01   4.000000E-01   4.000000E-01   4.000000E-01   4.000000E-01   4.000000E-01   4.000000E-01   4.000000E-01   4.000000E-01   4.000000E-01   4.000000E-01   4.000000E-01   4.000000E-01   4.000000E-01   4.000000E-01   4.000000E-01   4.000000E-01   4.000000E-01   4.000000E-01   4.000000E-01   4.000000E-01   4.000000E-01   4.000000E-01   4.000000E-01   4.000000E-01   4.000000E-01   4.000000E-01   4.000000E-01   4.000000E-01   4.000000E-01   4.000000E-01   4.000000E-01   4.000000E-01   4.000000E-01   4.000000E-01   4.000000E-01   4.000000E-01   4.000000E-01   4.000000E-01   4.000000E-01   4.000000E-01   4.000000E-01   4.000000E-01   4.000000E-01   4.000000E-01   4.000000E-01   4.000000E-01   4.000000E-01   4.000000E-01   4.000000E-01   4.000000E-01   4.000000E-01   4.000000E-01   4.000000E-01   4.000000E-01   4.000000E-01   4.000000E-01   4.000000E-01   4.000000E-01   4.000000E-01   4.000000E-01   4.000000E-01   4.000000E-01   4.000000E-01   4.000000E-01   4.000000E-01   4.000000E-01   4.000000E-01   4.000000E-01   4.000000E-01   4.000000E-01   4.000000E-01   4.000000E-01   4.000000E-01   4.000000E-01   4.000000E-01   4.000000E-01   4.000000E-01   4.000000E-01   4.000000E-01   4.000000E-01   4.000000E-01   4.000000E-01   4.000000E-01   4.000000E-01   4.000000E-01   4.000000E-01   4.000000E-01   4.000000E-01   4.000000E-01   4.000000E-01   4.000000E-01   4.000000E-01   4.000000E-01   4.000000E-01   4.000000E-01   4.000000E-01   4.000000E-01   4.000000E-01   4.000000E-01   4.000000E-01   4.000000E-01   4.000000E-01   4.000000E-01   4.000000E-01   4.000000E-01   4.000000E-01   4.000000E-01   4.000000E-01   4.000000E-01   4.000000E-01   4.000000E-01   4.000000E-01   4.000000E-01   4.000000E-01   4.000000E-01   4.000000E-01   4.000000E-01   4.000000E-01   4.000000E-01   4.000000E-01   4.000000E-01   4.000000E-01   4.000000E-01   4.000000E-01   4.000000E-01   4.000000E-01   4.000000E-01   4.000000E-01   4.000000E-01   4.000000E-01   4.000000E-01   4.000000E-01   4.000000E-01   4.000000E-01   4.000000E-01   4.000000E-01   4.000000E-01   4.000000E-01   4.000000E-01   4.000000E-01   4.000000E-01   4.000000E-01   4.000000E-01   4.000000E-01   4.000000E-01   4.000000E-01   4.000000E-01   4.000000E-01   4.000000E-01   4.000000E-01   4.000000E-01   4.000000E-01   4.000000E-01   4.000000E-01   4.000000E-01   4.000000E-01   4.000000E-01   4.000000E-01   4.000000E-01   4.000000E-01   4.000000E-01   4.000000E-01   4.000000E-01   4.000000E-01   4.000000E-01   4.000000E-01   4.000000E-01   4.000000E-01   4.000000E-01   4.000000E-01   4.000000E-01   4.000000E-01   4.000000E-01   4.000000E-01   4.000000E-01   4.000000E-01   4.000000E-01   4.000000E-01   4.000000E-01   4.000000E-01   4.000000E-01   4.000000E-01   4.000000E-01   4.000000E-01   4.000000E-01   4.000000E-01   4.000000E-01   4.000000E-01   4.000000E-01   4.000000E-01   4.000000E-01   4.000000E-01   4.000000E-01   4.000000E-01   4.000000E-01   4.000000E-01   4.000000E-01   4.000000E-01   4.000000E-01   4.000000E-01   4.000000E-01   4.000000E-01   4.000000E-01   4.000000E-01   4.000000E-01   4.000000E-01   4.000000E-01   4.000000E-01   4.000000E-01   4.000000E-01   4.000000E-01   4.000000E-01   4.000000E-01   4.000000E-01   4.000000E-01   4.000000E-01   4.000000E-01   4.000000E-01   4.000000E-01   4.000000E-01   4.000000E-01   4.000000E-01   4.000000E-01   4.000000E-01   4.000000E-01   4.000000E-01   4.000000E-01   4.000000E-01   4.000000E-01   4.000000E-01   4.000000E-01   4.000000E-01   4.000000E-01   4.000000E-01   4.000000E-01   4.000000E-01   4.000000E-01   4.000000E-01   4.000000E-01   4.000000E-01   4.000000E-01   4.000000E-01   4.000000E-01   4.000000E-01   4.000000E-01   4.000000E-01   4.000000E-01   4.000000E-01   4.000000E-01   4.000000E-01   4.000000E-01   4.000000E-01   4.000000E-01   4.000000E-01   4.000000E-01   4.000000E-01   4.000000E-01   4.000000E-01   4.000000E-01   4.000000E-01   4.000000E-01   4.000000E-01   4.000000E-01   4.000000E-01   4.000000E-01   4.000000E-01   4.000000E-01   4.000000E-01   4.000000E-01   4.000000E-01   4.000000E-01   4.000000E-01   4.000000E-01   4.000000E-01   4.000000E-01   4.000000E-01   4.000000E-01   4.000000E-01   4.000000E-01   4.000000E-01   4.000000E-01   4.000000E-01   4.000000E-01   4.000000E-01   4.000000E-01   4.000000E-01   4.000000E-01   4.000000E-01   4.000000E-01   4.000000E-01   4.000000E-01   4.000000E-01   4.000000E-01   4.000000E-01   4.000000E-01   4.000000E-01   4.000000E-01   4.000000E-01   4.000000E-01   4.000000E-01   4.000000E-01   4.000000E-01   4.000000E-01   4.000000E-01   4.000000E-01   4.000000E-01   4.000000E-01   4.000000E-01   4.000000E-01   4.000000E-01   4.000000E-01   4.000000E-01   4.000000E-01   4.000000E-01   4.000000E-01   4.000000E-01   4.000000E-01   4.000000E-01   4.000000E-01   4.000000E-01   4.000000E-01   4.000000E-01   4.000000E-01   4.000000E-01   4.000000E-01   4.000000E-01   4.000000E-01   4.000000E-01   4.000000E-01   4.000000E-01   4.000000E-01   4.000000E-01   4.000000E-01   4.000000E-01   4.000000E-01   4.000000E-01   4.000000E-01   4.000000E-01   4.000000E-01   4.000000E-01   4.000000E-01   4.000000E-01   4.000000E-01   4.000000E-01   4.000000E-01   4.000000E-01   4.000000E-01   4.000000E-01   4.000000E-01   4.000000E-01   4.000000E-01   4.000000E-01   4.000000E-01   4.000000E-01   4.000000E-01   4.000000E-01   4.000000E-01   4.000000E-01   4.000000E-01   4.000000E-01   4.000000E-01   4.000000E-01   4.000000E-01   4.000000E-01   4.000000E-01   4.000000E-01   4.000000E-01   4.000000E-01   4.000000E-01   4.000000E-01   4.000000E-01   4.000000E-01   4.000000E-01   4.000000E-01   4.000000E-01   4.000000E-01   4.000000E-01   4.000000E-01   4.000000E-01   4.000000E-01   4.000000E-01   4.000000E-01   4.000000E-01   4.000000E-01   4.000000E-01   4.000000E-01   4.000000E-01   4.000000E-01   4.000000E-01   4.000000E-01   4.000000E-01   4.000000E-01   4.000000E-01   4.000000E-01   4.000000E-01   4.000000E-01   4.000000E-01   4.000000E-01   4.000000E-01   4.000000E-01   4.000000E-01   4.000000E-01   4.000000E-01   4.000000E-01   4.000000E-01   4.000000E-01   4.000000E-01   4.000000E-01   4.000000E-01   4.000000E-01   4.000000E-01   4.000000E-01   4.000000E-01   4.000000E-01   4.000000E-01   4.000000E-01   4.000000E-01   4.000000E-01   4.000000E-01   4.000000E-01   4.000000E-01   4.000000E-01   4.000000E-01   4.000000E-01   4.000000E-01   4.000000E-01   4.000000E-01   4.000000E-01   4.000000E-01   4.000000E-01   4.000000E-01   4.000000E-01   4.000000E-01   4.000000E-01   4.000000E-01   4.000000E-01   4.000000E-01   4.000000E-01   4.000000E-01   4.000000E-01   4.000000E-01   4.000000E-01   4.000000E-01   4.000000E-01   4.000000E-01   4.000000E-01   4.000000E-01   4.000000E-01   4.000000E-01   4.000000E-01   4.000000E-01   4.000000E-01   4.000000E-01   4.000000E-01   4.000000E-01   4.000000E-01   4.000000E-01   4.000000E-01   4.000000E-01   4.000000E-01   4.000000E-01   4.000000E-01   4.000000E-01   4.000000E-01   4.000000E-01   4.000000E-01   4.000000E-01   4.000000E-01   4.000000E-01   4.000000E-01   4.000000E-01   4.000000E-01   4.000000E-01   4.000000E-01   4.000000E-01   4.000000E-01   4.000000E-01   4.000000E-01   4.000000E-01   4.000000E-01   4.000000E-01   4.000000E-01   4.000000E-01   4.000000E-01   4.000000E-01   4.000000E-01   4.000000E-01   4.000000E-01   4.000000E-01   4.000000E-01   4.000000E-01   4.000000E-01   4.000000E-01   4.000000E-01   4.000000E-01   4.000000E-01   4.000000E-01   4.000000E-01   4.000000E-01   4.000000E-01   4.000000E-01   4.000000E-01   4.000000E-01   4.000000E-01   4.000000E-01   4.000000E-01   4.000000E-01   4.000000E-01   4.000000E-01   4.000000E-01   4.000000E-01   4.000000E-01   4.000000E-01   4.000000E-01   4.000000E-01   4.000000E-01   4.000000E-01   4.000000E-01   4.000000E-01   4.000000E-01   4.000000E-01   4.000000E-01   4.000000E-01   4.000000E-01   4.000000E-01   4.000000E-01   4.000000E-01   4.000000E-01   4.000000E-01   4.000000E-01   4.000000E-01   4.000000E-01   4.000000E-01   4.000000E-01   4.000000E-01   4.000000E-01   4.000000E-01   4.000000E-01   4.000000E-01   4.000000E-01   4.000000E-01   4.000000E-01   4.000000E-01   4.000000E-01   4.000000E-01   4.000000E-01   4.000000E-01   4.000000E-01   4.000000E-01   4.000000E-01   4.000000E-01   4.000000E-01   4.000000E-01   4.000000E-01   4.000000E-01   4.000000E-01   4.000000E-01   4.000000E-01   4.000000E-01   4.000000E-01   4.000000E-01   4.000000E-01   4.000000E-01   4.000000E-01   