<?xml version="1.0"?>
<!-- Time =  1.0068362602810098E-01s -->
<VTKFile type="PolyData" version="0.1" byte_order="LittleEndian">
<PolyData>
<Piece NumberOfPoints="0000002400" NumberOfVerts="0" NumberOfLines="0" NumberOfStrips="0" NumberOfPolys="0">
<Points>
<DataArray type="Float32" Name="Position" NumberOfComponents="3" format="ascii">
  2.033573E-01   1.996945E-01   2.102311E-01   6.622670E-01   1.994425E-01   2.101924E-01   1.065489E+00   1.998863E-01   2.100347E-01   1.465452E+00   1.997950E-01   2.101394E-01   1.889130E+00   1.998956E-01   2.101619E-01   2.402186E+00   1.998808E-01   2.102074E-01   2.808853E+00   1.998461E-01   2.098012E-01   3.210524E+00   1.999222E-01   2.102519E-01   3.613379E+00   1.994992E-01   2.095938E-01   4.015028E+00   1.991735E-01   2.102782E-01   4.419317E+00   1.997326E-01   2.099108E-01   4.820245E+00   1.998229E-01   2.087877E-01   5.223681E+00   1.979317E-01   2.110836E-01   5.631673E+00   1.983695E-01   2.119418E-01   6.130691E+00   1.993485E-01   2.124282E-01   6.601222E+00   3.099298E-01   2.249604E-01   6.752084E+00   1.668662E+00   2.384066E-01   7.159291E+00   2.018952E+00   2.673698E-01   7.582594E+00   2.324326E+00   3.232362E-01   7.769380E+00   1.148766E+00   2.069234E-01   8.460556E+00   2.040178E-01   2.175901E-01   9.078416E+00   1.995843E-01   2.163632E-01   9.497602E+00   2.044173E-01   2.145944E-01   9.908791E+00   2.002974E-01   2.107134E-01   1.031698E+01   1.995963E-01   2.108058E-01   1.079369E+01   2.002027E-01   2.105657E-01   1.120446E+01   2.020015E-01   2.099618E-01   1.160649E+01   2.008459E-01   2.102105E-01   1.204908E+01   1.998417E-01   2.099255E-01   1.244975E+01   1.999547E-01   2.098166E-01   1.285535E+01   1.995430E-01   2.098980E-01   1.329149E+01   1.997550E-01   2.096292E-01   1.369170E+01   1.998640E-01   2.096064E-01   1.412557E+01   1.999849E-01   2.094627E-01   1.452796E+01   1.995850E-01   2.094339E-01   2.009047E-01   5.994611E-01   2.105831E-01   6.005682E-01   5.944811E-01   2.105073E-01   1.000261E+00   5.941905E-01   2.101264E-01   1.399850E+00   5.941726E-01   2.104032E-01   1.799570E+00   5.896860E-01   2.104867E-01   2.196584E+00   5.435123E-01   2.105252E-01   2.601565E+00   5.464191E-01   2.094494E-01   3.007370E+00   5.477457E-01   2.087909E-01   3.412209E+00   5.451735E-01   2.086304E-01   3.814579E+00   5.450609E-01   2.088636E-01   4.216908E+00   5.444412E-01   2.088903E-01   4.619532E+00   5.460805E-01   2.055984E-01   5.022106E+00   5.447876E-01   2.156708E-01   5.427159E+00   5.421426E-01   1.997666E-01   5.875934E+00   5.139028E-01   2.001948E-01   6.604190E+00   7.115290E-01   2.414698E-01   6.209939E+00   2.199230E+00   2.176536E-01   6.680288E+00   2.792135E+00   4.298985E-01   7.648296E+00   2.773906E+00   2.821118E-01   8.140387E+00   1.343731E+00   2.050960E-01   8.777827E+00   4.653469E-01   2.051175E-01   9.280863E+00   5.443400E-01   2.132179E-01   9.709108E+00   5.472602E-01   2.156190E-01   1.011536E+01   5.442840E-01   2.003447E-01   1.055670E+01   5.224609E-01   2.106595E-01   1.099580E+01   5.469559E-01   2.085075E-01   1.140683E+01   5.479296E-01   2.089303E-01   1.182549E+01   5.362823E-01   2.096518E-01   1.222589E+01   5.606129E-01   2.087437E-01   1.262594E+01   5.586342E-01   2.093060E-01   1.302614E+01   5.612378E-01   2.094171E-01   1.342603E+01   5.762535E-01   2.090121E-01   1.382580E+01   5.771055E-01   2.089257E-01   1.422565E+01   5.874906E-01   2.087394E-01   1.462581E+01   5.873681E-01   2.087356E-01   2.015628E-01   9.993914E-01   2.103108E-01   6.015995E-01   9.944880E-01   2.102629E-01   1.002627E+00   9.947836E-01   2.102415E-01   1.402587E+00   9.940351E-01   2.103044E-01   1.807045E+00   9.894857E-01   2.103142E-01   2.205601E+00   9.444941E-01   2.103135E-01   2.607354E+00   9.487845E-01   2.100767E-01   3.008260E+00   9.501449E-01   2.096423E-01   3.419767E+00   9.449223E-01   2.093062E-01   3.821229E+00   9.447683E-01   2.121866E-01   4.224892E+00   9.443780E-01   2.091697E-01   4.635083E+00   9.460616E-01   2.065442E-01   5.035801E+00   9.442188E-01   2.314529E-01   5.438853E+00   9.405948E-01   2.325676E-01   5.869997E+00   9.156358E-01   2.163920E-01   5.663439E+00   1.272464E+00   2.579904E-01   5.717010E+00   2.351686E+00   2.095867E-01   7.061947E+00   3.172158E+00   2.092067E-01   7.726653E+00   3.356012E+00   3.529602E-01   8.806868E+00   1.144867E+00   2.041877E-01   8.548762E+00   7.973115E-01   2.105782E-01   9.127737E+00   9.158252E-01   2.136268E-01   9.592125E+00   9.305515E-01   2.150165E-01   1.004192E+01   9.372764E-01   2.084435E-01   1.044137E+01   9.059067E-01   2.107315E-01   1.085922E+01   9.230351E-01   2.111958E-01   1.126022E+01   9.279732E-01   2.097372E-01   1.167086E+01   9.061833E-01   2.100012E-01   1.207140E+01   9.298754E-01   2.094842E-01   1.248007E+01   9.364187E-01   2.095795E-01   1.288306E+01   9.349672E-01   2.096470E-01   1.329760E+01   9.557366E-01   2.092230E-01   1.370788E+01   9.610794E-01   2.092351E-01   1.412239E+01   9.743633E-01   2.089480E-01   1.464569E+01   9.890980E-01   2.089463E-01   2.072441E-01   1.997583E-01   6.302094E-01   6.319804E-01   1.996767E-01   6.301491E-01   1.068574E+00   1.996099E-01   6.300651E-01   1.473004E+00   1.996200E-01   6.301140E-01   1.874487E+00   1.997216E-01   6.299233E-01   2.276374E+00   1.998683E-01   6.304063E-01   2.779706E+00   1.997034E-01   6.296214E-01   3.225058E+00   1.997354E-01   6.301329E-01   3.627261E+00   1.997101E-01   6.295827E-01   4.030587E+00   1.996994E-01   6.303756E-01   4.434487E+00   1.995436E-01   6.307485E-01   4.843544E+00   1.995695E-01   6.272722E-01   5.258481E+00   2.001810E-01   6.294475E-01   5.766978E+00   2.010996E-01   6.280370E-01   6.202971E+00   1.995507E-01   6.264020E-01   6.584322E+00   2.473296E-01   7.358096E-01   6.647829E+00   5.324596E+00   5.351841E-01   7.345783E+00   6.293831E+00   7.593619E-01   7.761862E+00   6.231730E+00   7.647534E-01   7.851749E+00   3.803844E+00   7.880644E-01   8.271352E+00   3.381611E-01   6.432768E-01   9.062358E+00   1.987010E-01   6.421926E-01   9.544448E+00   1.992232E-01   6.394820E-01   9.953418E+00   2.004239E-01   6.303625E-01   1.036021E+01   1.999749E-01   6.309788E-01   1.076115E+01   1.997732E-01   6.312371E-01   1.116527E+01   1.998226E-01   6.300282E-01   1.163574E+01   1.999472E-01   6.301697E-01   1.204400E+01   2.010437E-01   6.300427E-01   1.244403E+01   2.004830E-01   6.298674E-01   1.284383E+01   2.013447E-01   6.299898E-01   1.325922E+01   1.999083E-01   6.297232E-01   1.366085E+01   2.031565E-01   6.296773E-01   1.406974E+01   2.015823E-01   6.295111E-01   1.447032E+01   2.024867E-01   6.295070E-01   1.999563E-01   5.995570E-01   6.305541E-01   5.998287E-01   5.981070E-01   6.305159E-01   9.996701E-01   5.933889E-01   6.302950E-01   1.399555E+00   5.924975E-01   6.305366E-01   1.799447E+00   5.924588E-01   6.299630E-01   2.199347E+00   5.923110E-01   6.311275E-01   2.597525E+00   5.554976E-01   6.297403E-01   3.002448E+00   5.319379E-01   6.276996E-01   3.426098E+00   5.452757E-01   6.295743E-01   3.829080E+00   5.449204E-01   6.275733E-01   4.232795E+00   5.447431E-01   6.338013E-01   4.638046E+00   5.433615E-01   6.168126E-01   5.050705E+00   5.413898E-01   6.492384E-01   5.513575E+00   5.106277E-01   6.348319E-01   5.988035E+00   5.333287E-01   5.841492E-01   6.768900E+00   1.087795E+00   5.720803E-01   5.666136E+00   5.524477E+00   5.343305E-01   6.119740E+00   6.600183E+00   4.753383E-01   7.861890E+00   6.631095E+00   5.591919E-01   7.990721E+00   4.295423E+00   5.867290E-01   8.820578E+00   5.356151E-01   6.074223E-01   9.301718E+00   5.222148E-01   6.519929E-01   9.755614E+00   5.490956E-01   6.378638E-01   1.016083E+01   5.462209E-01   6.186152E-01   1.056074E+01   5.458254E-01   6.296626E-01   1.096296E+01   5.448698E-01   6.298387E-01   1.139996E+01   5.235650E-01   6.286246E-01   1.183958E+01   5.443990E-01   6.294110E-01   1.225304E+01   5.525320E-01   6.284057E-01   1.265349E+01   5.552397E-01   6.290651E-01   1.305930E+01   5.463314E-01   6.292998E-01   1.346127E+01   5.499861E-01   6.287197E-01   1.386310E+01   5.624740E-01   6.287906E-01   1.428105E+01   5.581173E-01   6.286132E-01   1.474315E+01   4.976143E-01   6.286385E-01   2.020897E-01   9.994899E-01   6.303219E-01   6.041788E-01   9.978992E-01   6.303719E-01   1.006168E+00   9.931875E-01   6.304750E-01   1.407538E+00   9.922453E-01   6.303522E-01   1.807719E+00   9.922957E-01   6.303720E-01   2.210959E+00   9.921136E-01   6.306233E-01   2.610367E+00   9.551331E-01   6.300696E-01   3.009823E+00   9.321055E-01   6.297929E-01   3.410735E+00   9.448711E-01   6.291282E-01   3.814583E+00   9.444320E-01   6.329413E-01   4.216337E+00   9.443855E-01   6.297131E-01   4.622632E+00   9.432143E-01   6.191081E-01   5.020792E+00   9.402466E-01   6.573049E-01   5.429763E+00   9.039700E-01   6.748406E-01   5.835816E+00   9.008190E-01   6.334387E-01   4.694986E+00   1.373813E+00   5.970110E-01   4.774858E+00   4.956521E+00   5.495479E-01   6.539554E+00   7.364997E+00   4.464154E-01   7.927168E+00   7.002296E+00   3.937975E-01   9.072269E+00   2.871426E+00   5.912883E-01   8.517046E+00   8.726643E-01   6.280831E-01   9.161557E+00   9.030511E-01   6.419714E-01   9.578516E+00   9.121264E-01   6.377533E-01   1.000195E+01   9.218350E-01   6.262818E-01   1.045274E+01   9.307920E-01   6.298064E-01   1.091264E+01   9.417776E-01   6.309469E-01   1.131489E+01   9.146288E-01   6.290914E-01   1.172051E+01   9.262040E-01   6.294907E-01   1.212463E+01   9.393017E-01   6.289988E-01   1.253453E+01   9.406392E-01   6.291255E-01   1.295133E+01   9.415943E-01   6.292930E-01   1.336692E+01   9.393123E-01   6.288232E-01   1.378597E+01   9.603317E-01   6.289076E-01   1.422576E+01   9.628710E-01   6.287785E-01   1.478561E+01   9.145005E-01   6.291305E-01   2.012438E-01   1.998142E-01   1.050167E+00   6.101438E-01   1.997241E-01   1.050342E+00   1.014530E+00   1.997890E-01   1.050217E+00   1.459891E+00   1.997396E-01   1.049739E+00   1.958611E+00   1.994104E-01  
[...]
<PointData Scalars="Diameter" Vectors="Velocity">
<DataArray type="Float32" Name="Diameter" format="ascii">
  4.000000E-01   4.000000E-01   4.000000E-01   4.000000E-01   4.000000E-01   4.000000E-01   4.000000E-01   4.000000E-01   4.000000E-01   4.000000E-01   4.000000E-01   4.000000E-01   4.000000E-01   4.000000E-01   4.000000E-01   4.000000E-01   4.000000E-01   4.000000E-01   4.000000E-01   4.000000E-01   4.000000E-01   4.000000E-01   4.000000E-01   4.000000E-01   4.000000E-01   4.000000E-01   4.000000E-01   4.000000E-01   4.000000E-01   4.000000E-01   4.000000E-01   4.000000E-01   4.000000E-01   4.000000E-01   4.000000E-01   4.000000E-01   4.000000E-01   4.000000E-01   4.000000E-01   4.000000E-01   4.000000E-01   4.000000E-01   4.000000E-01   4.000000E-01   4.000000E-01   4.000000E-01   4.000000E-01   4.000000E-01   4.000000E-01   4.000000E-01   4.000000E-01   4.000000E-01   4.000000E-01   4.000000E-01   4.000000E-01   4.000000E-01   4.000000E-01   4.000000E-01   4.000000E-01   4.000000E-01   4.000000E-01   4.000000E-01   4.000000E-01   4.000000E-01   4.000000E-01   4.000000E-01   4.000000E-01   4.000000E-01   4.000000E-01   4.000000E-01   4.000000E-01   4.000000E-01   4.000000E-01   4.000000E-01   4.000000E-01   4.000000E-01   4.000000E-01   4.000000E-01   4.000000E-01   4.000000E-01   4.000000E-01   4.000000E-01   4.000000E-01   4.000000E-01   4.000000E-01   4.000000E-01   4.000000E-01   4.000000E-01   4.000000E-01   4.000000E-01   4.000000E-01   4.000000E-01   4.000000E-01   4.000000E-01   4.000000E-01   4.000000E-01   4.000000E-01   4.000000E-01   4.000000E-01   4.000000E-01   4.000000E-01   4.000000E-01   4.000000E-01   4.000000E-01   4.000000E-01   4.000000E-01   4.000000E-01   4.000000E-01   4.000000E-01   4.000000E-01   4.000000E-01   4.000000E-01   4.000000E-01   4.000000E-01   4.000000E-01   4.000000E-01   4.000000E-01   4.000000E-01   4.000000E-01   4.000000E-01   4.000000E-01   4.000000E-01   4.000000E-01   4.000000E-01   4.000000E-01   4.000000E-01   4.000000E-01   4.000000E-01   4.000000E-01   4.000000E-01   4.000000E-01   4.000000E-01   4.000000E-01   4.000000E-01   4.000000E-01   4.000000E-01   4.000000E-01   4.000000E-01   4.000000E-01   4.000000E-01   4.000000E-01   4.000000E-01   4.000000E-01   4.000000E-01   4.000000E-01   4.000000E-01   4.000000E-01   4.000000E-01   4.000000E-01   4.000000E-01   4.000000E-01   4.000000E-01   4.000000E-01   4.000000E-01   4.000000E-01   4.000000E-01   4.000000E-01   4.000000E-01   4.000000E-01   4.000000E-01   4.000000E-01   4.000000E-01   4.000000E-01   4.000000E-01   4.000000E-01   4.000000E-01   4.000000E-01   4.000000E-01   4.000000E-01   4.000000E-01   4.000000E-01   4.000000E-01   4.000000E-01   4.000000E-01   4.000000E-01   4.000000E-01   4.000000E-01   4.000000E-01   4.000000E-01   4.000000E-01   4.000000E-01   4.000000E-01   4.000000E-01   4.000000E-01   4.000000E-01   4.000000E-01   4.000000E-01   4.000000E-01   4.000000E-01   4.000000E-01   4.000000E-01   4.000000E-01   4.000000E-01   4.000000E-01   4.000000E-01   4.000000E-01   4.000000E-01   4.000000E-01   4.000000E-01   4.000000E-01   4.000000E-01   4.000000E-01   4.000000E-01   4.000000E-01   4.000000E-01   4.000000E-01   4.000000E-01   4.000000E-01   4.000000E-01   4.000000E-01   4.000000E-01   4.000000E-01   4.000000E-01   4.000000E-01   4.000000E-01   4.000000E-01   4.000000E-01   4.000000E-01   4.000000E-01   4.000000E-01   4.000000E-01   4.000000E-01   4.000000E-01   4.000000E-01   4.000000E-01   4.000000E-01   4.000000E-01   4.000000E-01   4.000000E-01   4.000000E-01   4.000000E-01   4.000000E-01   4.000000E-01   4.000000E-01   4.000000E-01   4.000000E-01   4.000000E-01   4.000000E-01   4.000000E-01   4.000000E-01   4.000000E-01   4.000000E-01   4.000000E-01   4.000000E-01   4.000000E-01   4.000000E-01   4.000000E-01   4.000000E-01   4.000000E-01   4.000000E-01   4.000000E-01   4.000000E-01   4.000000E-01   4.000000E-01   4.000000E-01   4.000000E-01   4.000000E-01   4.000000E-01   4.000000E-01   4.000000E-01   4.000000E-01   4.000000E-01   4.000000E-01   4.000000E-01   4.000000E-01   4.000000E-01   4.000000E-01   4.000000E-01   4.000000E-01   4.000000E-01   4.000000E-01   4.000000E-01   4.000000E-01   4.000000E-01   4.000000E-01   4.000000E-01   4.000000E-01   4.000000E-01   4.000000E-01   4.000000E-01   4.000000E-01   4.000000E-01   4.000000E-01   4.000000E-01   4.000000E-01   4.000000E-01   4.000000E-01   4.000000E-01   4.000000E-01   4.000000E-01   4.000000E-01   4.000000E-01   4.000000E-01   4.000000E-01   4.000000E-01   4.000000E-01   4.000000E-01   4.000000E-01   4.000000E-01   4.000000E-01   4.000000E-01   4.000000E-01   4.000000E-01   4.000000E-01   4.000000E-01   4.000000E-01   4.000000E-01   4.000000E-01   4.000000E-01   4.000000E-01   4.000000E-01   4.000000E-01   4.000000E-01   4.000000E-01   4.000000E-01   4.000000E-01   4.000000E-01   4.000000E-01   4.000000E-01   4.000000E-01   4.000000E-01   4.000000E-01   4.000000E-01   4.000000E-01   4.000000E-01   4.000000E-01   4.000000E-01   4.000000E-01   4.000000E-01   4.000000E-01   4.000000E-01   4.000000E-01   4.000000E-01   4.000000E-01   4.000000E-01   4.000000E-01   4.000000E-01   4.000000E-01   4.000000E-01   4.000000E-01   4.000000E-01   4.000000E-01   4.000000E-01   4.000000E-01   4.000000E-01   4.000000E-01   4.000000E-01   4.000000E-01   4.000000E-01   4.000000E-01   4.000000E-01   4.000000E-01   4.000000E-01   4.000000E-01   4.000000E-01   4.000000E-01   4.000000E-01   4.000000E-01   4.000000E-01   4.000000E-01   4.000000E-01   4.000000E-01   4.000000E-01   4.000000E-01   4.000000E-01   4.000000E-01   4.000000E-01   4.000000E-01   4.000000E-01   4.000000E-01   4.000000E-01   4.000000E-01   4.000000E-01   4.000000E-01   4.000000E-01   4.000000E-01   4.000000E-01   4.000000E-01   4.000000E-01   4.000000E-01   4.000000E-01   4.000000E-01   4.000000E-01   4.000000E-01   4.000000E-01   4.000000E-01   4.000000E-01   4.000000E-01   4.000000E-01   4.000000E-01   4.000000E-01   4.000000E-01   4.000000E-01   4.000000E-01   4.000000E-01   4.000000E-01   4.000000E-01   4.000000E-01   4.000000E-01   4.000000E-01   4.000000E-01   4.000000E-01   4.000000E-01   4.000000E-01   4.000000E-01   4.000000E-01   4.000000E-01   4.000000E-01   4.000000E-01   4.000000E-01   4.000000E-01   4.000000E-01   4.000000E-01   4.000000E-01   4.000000E-01   4.000000E-01   4.000000E-01   4.000000E-01   4.000000E-01   4.000000E-01   4.000000E-01   4.000000E-01   4.000000E-01   4.000000E-01   4.000000E-01   4.000000E-01   4.000000E-01   4.000000E-01   4.000000E-01   4.000000E-01   4.000000E-01   4.000000E-01   4.000000E-01   4.000000E-01   4.000000E-01   4.000000E-01   4.000000E-01   4.000000E-01   4.000000E-01   4.000000E-01   4.000000E-01   4.000000E-01   4.000000E-01   4.000000E-01   4.000000E-01   4.000000E-01   4.000000E-01   4.000000E-01   4.000000E-01   4.000000E-01   4.000000E-01   4.000000E-01   4.000000E-01   4.000000E-01   4.000000E-01   4.000000E-01   4.000000E-01   4.000000E-01   4.000000E-01   4.000000E-01   4.000000E-01   4.000000E-01   4.000000E-01   4.000000E-01   4.000000E-01   4.000000E-01   4.000000E-01   4.000000E-01   4.000000E-01   4.000000E-01   4.000000E-01   4.000000E-01   4.000000E-01   4.000000E-01   4.000000E-01   4.000000E-01   4.000000E-01   4.000000E-01   4.000000E-01   4.000000E-01   4.000000E-01   4.000000E-01   4.000000E-01   4.000000E-01   4.000000E-01   4.000000E-01   4.000000E-01   4.000000E-01   4.000000E-01   4.000000E-01   4.000000E-01   4.000000E-01   4.000000E-01   4.000000E-01   4.000000E-01   4.000000E-01   4.000000E-01   4.000000E-01   4.000000E-01   4.000000E-01   4.000000E-01   4.000000E-01   4.000000E-01   4.000000E-01   4.000000E-01   4.000000E-01   4.000000E-01   4.000000E-01   4.000000E-01   4.000000E-01   4.000000E-01   4.000000E-01   4.000000E-01   4.000000E-01   4.000000E-01   4.000000E-01   4.000000E-01   4.000000E-01   4.000000E-01   4.000000E-01   4.000000E-01   4.000000E-01   4.000000E-01   4.000000E-01   4.000000E-01   4.000000E-01   4.000000E-01   4.000000E-01   4.000000E-01   4.000000E-01   4.000000E-01   4.000000E-01   4.000000E-01   4.000000E-01   4.000000E-01   4.000000E-01   4.000000E-01   4.000000E-01   4.000000E-01   4.000000E-01   4.000000E-01   4.000000E-01   4.000000E-01   4.000000E-01   4.000000E-01   4.000000E-01   4.000000E-01   4.000000E-01   4.000000E-01   4.000000E-01   4.000000E-01   4.000000E-01   4.000000E-01   4.000000E-01   4.000000E-01   4.000000E-01   4.000000E-01   4.000000E-01   4.000000E-01   4.000000E-01   4.000000E-01   4.000000E-01   4.000000E-01   4.000000E-01   4.000000E-01   4.000000E-01   4.000000E-01   4.000000E-01   4.000000E-01   4.000000E-01   4.000000E-01   4.000000E-01   4.000000E-01   4.000000E-01   4.000000E-01   4.000000E-01   4.000000E-01   4.000000E-01   4.000000E-01   4.000000E-01   4.000000E-01   4.000000E-01   4.000000E-01   4.000000E-01   4.000000E-01   4.000000E-01   4.000000E-01   4.000000E-01   4.000000E-01   4.000000E-01   4.000000E-01   4.000000E-01   4.000000E-01   4.000000E-01   4.000000E-01   4.000000E-01   4.000000E-01   4.000000E-01   4.000000E-01   4.000000E-01   4.000000E-01   4.000000E-01   4.000000E-01   4.000000E-01   4.000000E-01   4.000000E-01   4.000000E-01   4.000000E-01   4.000000E-01   4.000000E-01   4.000000E-01   4.000000E-01   4.000000E-01   4.000000E-01   4.000000E-01   4.000000E-01   4.000000E-01   4.000000E-01   4.000000E-01   4.000000E-01   4.000000E-01   4.000000E-01   4.000000E-01   4.000000E-01   4.000000E-01   4.000000E-01   4.000000E-01   4.000000E-01   4.000000E-01   4.000000E-01   4.000000E-01   4.000000E-01   4.000000E-01   4.000000E-01   4.000000E-01   4.000000E-01   4.000000E-01   4.000000E-01   4.000000E-01   4.000000E-01   4.000000E-01   4.000000E-01   4.000000E-01   4.000000E-01   4.000000E-01   4.000000E-01   4.000000E-01   4.000000E-01   4.000000E-01   4.000000E-01   4.000000E-01   4.000000E-01   4.000000E-01   4.000000E-01   4.000000E-01   4.000000E-01   4.000000E-01   4.000000E-01   4.000000E-01   4.000000E-01   4.000000E-01   4.000000E-01   4.000000E-01   4.000000E-01   4.000000E-01   4.000000E-01   4.000000E-01   4.000000E-01   4.000000E-01   4.000000E-01   4.000000E-01   4.000000E-01   4.000000E-01   4.000000E-01   4.000000E-01   4.000000E-01   4.000000E-01   4.000000E-01   4.000000E-01   4.000000E-01   4.000000E-01   4.000000E-01   4.000000E-01   4.000000E-01   4.000000E-01   4.000000E-01   4.000000E-01   4.000000E-01   4.000000E-01   4.000000E-01   4.000000E-01   4.000000E-01   4.000000E-01   4.000000E-01   4.000000E-01   4.000000E-01   4.000000E-01   4.000000E-01   4.000000E-01   4.000000E-01   4.000000E-01   4.000000E-01   4.000000E-01   4.000000E-01   4.000000E-01   4.000000E-01   4.000000E-01   4.000000E-01   4.000000E-01   4.000000E-01   4.000000E-01   4.000000E-01   4.000000E-01   4.000000E-01   4.000000E-01   4.000000E-01   4.000000E-01   4.000000E-01   4.000000E-01   4.000000E-01   4.000000E-01   4.000000E-01   4.000000E-01   4.000000E-01   4.000000E-01   4.000000E-01   4.000000E-01   4.000000E-01   4.000000E-01   4.000000E-01   4.000000E-01   4.000000E-01   4.000000E-01   4.000000E-01   4.000000E-01   4.000000E-01   4.000000E-01   4.000000E-01   4.000000E-01   4.000000E-01   4.000000E-01   4.000000E-01   4.000000E-01   4.000000E-01   4.000000E-01   4.000000E-01   4.000000E-01   4.000000E-01   4.000000E-01   4.000000E-01   4.000000E-01   4.000000E-01   4.000000E-01   4.000000E-01   4.000000E-01   4.000000E-01   4.000000E-01   4.000000E-01   4.000000E-01   4.000000E-01   4.000000E-01   4.000000E-01   4.000000E-01   4.000000E-01   4.000000E-01   4.000000E-01   4.000000E-01   4.000000E-01   4.000000E-01   4.000000E-01   4.000000E-01   4.000000E-01   4.000000E-01   4.000000E-01   4.000000E-01   4.000000E-01   4.000000E-01   4.000000E-01   4.000000E-01   4.000000E-01   4.000000E-01   4.000000E-01   4.000000E-01   4.000000E-01   4.000000E-01   4.000000E-01   4.000000E-01   4.000000E-01   4.000000E-01   4.000000E-01   4.000000E-01   4.000000E-01   4.000000E-01   4.000000E-01   4.000000E-01   4.000000E-01   4.000000E-01   4.000000E-01   4.000000E-01   4.000000E-01   4.000000E-01   4.000000E-01   4.000000E-01   4.000000E-01   4.000000E-01   4.000000E-01   4.000000E-01   4.000000E-01   4.000000E-01   4.000000E-01   4.000000E-01   4.000000E-01   4.000000E-01   4.000000E-01   4.000000E-01   4.000000E-01   4.000000E-01   4.000000E-01   4.000000E-01   4.000000E-01   4.000000E-01   4.000000E-01   4.000000E-01   4.000000E-01   4.000000E-01   4.000000E-01   4.000000E-01   4.000000E-01   4.000000E-01   4.000000E-01   4.000000E-01   4.000000E-01   4.000000E-01   4.000000E-01   4.000000E-01   4.000000E-01   4.000000E-01   4.000000E-01   4.000000E-01   4.000000E-01   4.000000E-01   4.000000E-01   4.000000E-01   4.000000E-01   4.000000E-01   4.000000E-01   4.000000E-01   4.000000E-01   4.000000E-01   4.000000E-01   4.000000E-01   4.000000E-01   4.000000E-01   4.000000E-01   4.000000E-01   4.000000E-01   4.000000E-01   4.000000E-01   4.000000E-01   4.000000E-01   4.000000E-01   4.000000E-01   4.000000E-01   4.000000E-01   4.000000E-01   4.000000E-01   4.000000E-01   4.000000E-01   4.000000E-01   4.000000E-01   4.000000E-01   4.000000E-01   4.000000E-01   4.000000E-01   4.000000E-01   4.000000E-01   4.000000E-01   4.000000E-01   4.000000E-01   4.000000E-01   4.000000E-01   4.000000E-01   4.000000E-01   4.000000E-01   4.000000E-01   4.000000E-01   4.000000E-01   4.000000E-01   4.000000E-01   4.000000E-01   4.000000E-01   4.000000E-01   4.000000E-01   4.000000E-01   4.000000E-01   4.000000E-01   4.000000E-01   4.000000E-01   4.000000E-01   4.000000E-01   4.000000E-01   4.000000E-01   4.000000E-01   4.000000E-01   4.000000E-01   4.000000E-01   4.000000E-01   4.000000E-01   4.000000E-01   4.000000E-01   4.000000E-01   4.000000E-01   4.000000E-01   4.000000E-01   4.000000E-01   4.000000E-01   4.000000E-01   4.000000E-01   4.000000E-01   4.000000E-01   4.000000E-01   4.000000E-01   4.000000E-01   4.000000E-01   4.000000E-01   4.000000E-01   4.000000E-01   4.000000E-01   4.000000E-01   4.000000E-01   4.000000E-01   4.000000E-01   4.000000E-01   4.000000E-01   4.000000E-01   4.000000E-01   4.000000E-01   4.000000E-01   4.000000E-01   4.000000E-01   4.000000E-01   4.000000E-01   4.000000E-01   4.000000E-01   4.000000E-01   4.000000E-01   4.000000E-01   4.000000E-01   4.000000E-01   4.000000E-01   4.000000E-01   4.000000E-01   4.000000E-01   4.000000E-01   4.000000E-01   4.000000E-01   4.000000E-01   4.000000E-01   4.000000E-01   4.000000E-01   4.000000E-01   4.000000E-01   4.000000E-01   4.000000E-01   4.000000E-01   4.000000E-01   4.000000E-01   4.000000E-01   4.000000E-01   4.000000E-01   4.000000E-01   4.000000E-01   4.000000E-01   4.000000E-01   4.000000E-01   4.000000E-01   4.000000E-01   4.000000E-01   4.000000E-01   4.000000E-01   4.000000E-01   4.000000E-01   4.000000E-01   4.000000E-01   4.000000E-01   4.000000E-01   4.000000E-01   4.000000E-01   4.000000E-01   4.000000E-01   4.000000E-01   4.000000E-01   4.000000E-01   4.000000E-01   4.000000E-01   4.000000E-01   4.000000E-01   4.000000E-01   4.000000E-01   4.000000E-01   4.000000E-01   4.000000E-01   4.000000E-01   4.000000E-01   4.000000E-01   4.000000E-01   4.000000E-01   4.000000E-01   4.000000E-01   4.000000E-01   4.000000E-01   4.000000E-01   4.000000E-01   4.000000E-01   4.000000E-01   4.000000E-01   4.000000E-01   4.000000E-01   4.000000E-01   4.000000E-01   4.000000E-01   4.000000E-01   4.000000E-01   4.000000E-01   4.000000E-01   4.000000E-01   4.000000E-01   4.000000E-01   4.000000E-01   4.000000E-01   4.000000E-01   4.000000E-01   4.000000E-01   4.000000E-01   4.000000E-01   4.000000E-01   4.000000E-01   4.000000E-01   4.000000E-01   4.000000E-01   4.000000E-01   4.000000E-01   4.000000E-01   4.000000E-01   4.000000E-01   4.000000E-01   4.000000E-01   4.000000E-01   4.000000E-01   4.000000E-01   4.000000E-01   4.000000E-01   4.000000E-01   4.000000E-01   4.000000E-01   4.000000E-01   4.000000E-01   4.000000E-01   4.000000E-01   4.000000E-01   4.000000E-01   4.000000E-01   4.000000E-01   4.000000E-01   4.000000E-01   4.000000E-01   4.000000E-01   4.000000E-01   4.000000E-01   4.000000E-01   4.000000E-01   4.000000E-01   4.000000E-01   4.000000E-01   4.000000E-01   4.000000E-01   4.000000E-01   4.000000E-01   4.000000E-01   4.000000E-01   4.000000E-01   4.000000E-01   4.000000E-01   4.000000E-01   4.000000E-01   4.000000E-01   4.000000E-01   4.000000E-01   4.000000E-01   4.000000E-01   4.000000E-01   4.000000E-01   4.000000E-01   4.000000E-01   4.000000E-01   4.000000E-01   4.000000E-01   4.000000E-01   4.000000E-01   4.000000E-01   4.000000E-01   4.000000E-01   4.000000E-01   4.000000E-01   4.000000E-01   4.000000E-01   4.000000E-01   4.000000E-01   4.000000E-01   4.000000E-01   4.000000E-01   4.000000E-01   4.000000E-01   4.000000E-01   4.000000E-01   4.000000E-01   4.000000E-01   4.000000E-01   4.000000E-01   4.000000E-01   4.000000E-01   4.000000E-01   4.000000E-01   4.000000E-01   4.000000E-01   4.000000E-01   4.000000E-01   4.000000E-01   4.000000E-01   4.000000E-01   4.000000E-01   4.000000E-01   4.000000E-01   4.000000E-01   4.000000E-01   4.000000E-01   4.000000E-01   4.000000E-01   4.000000E-01   4.000000E-01   4.000000E-01   4.000000E-01   4.000000E-01   4.000000E-01   4.000000E-01   4.000000E-01   4.000000E-01   4.000000E-01   4.000000E-01   4.000000E-01   4.000000E-01   4.000000E-01   4.000000E-01   4.000000E-01   4.000000E-01   4.000000E-01   4.000000E-01   4.000000E-01   4.000000E-01   4.000000E-01   4.000000E-01   4.000000E-01   4.000000E-01   4.000000E-01   4.000000E-01   4.000000E-01   4.000000E-01   4.000000E-01   4.000000E-01   4.000000E-01   4.000000E-01   4.000000E-01   4.000000E-01   4.000000E-01   4.000000E-01   4.000000E-01   4.000000E-01   4.000000E-01   4.000000E-01   4.000000E-01   4.000000E-01   4.000000E-01   4.000000E-01   4.000000E-01   4.000000E-01   4.000000E-01   4.000000E-01   4.000000E-01   4.000000E-01   4.000000E-01   4.000000E-01   4.000000E-01   4.000000E-01   4.000000E-01   4.000000E-01   4.000000E-01   4.000000E-01   4.000000E-01   4.000000E-01   4.000000E-01   4.000000E-01   4.000000E-01   4.000000E-01   4.000000E-01   4.000000E-01   4.000000E-01   4.000000E-01   4.000000E-01   4.000000E-01   4.000000E-01   4.000000E-01   4.000000E-01   4.000000E-01   4.000000E-01   4.000000E-01   4.000000E-01   4.000000E-01   4.000000E-01   4.000000E-01   4.000000E-01   4.000000E-01   4.000000E-01   4.000000E-01   4.000000E-01   4.000000E-01   4.000000E-01   4.000000E-01   4.000000E-01   4.000000E-01   4.000000E-01   4.000000E-01   4.000000E-01   4.000000E-01   4.000000E-01   4.000000E-01   4.000000E-01   4.000000E-01   4.000000E-01   4.000000E-01   4.000000E-01   4.000000E-01   4.000000E-01   4.000000E-01   4.000000E-01   4.000000E-01   4.000000E-01   4.000000E-01   4.000000E-01   4.000000E-01   4.000000E-01   4.000000E-01   4.000000E-01   4.000000E-01   4.000000E-01   4.000000E-01   4.000000E-01   4.000000E-01   4.000000E-01   4.000000E-01   4.000000E-01   4.000000E-01   4.000000E-01   4.000000E-01   4.000000E-01   4.000000E-01   4.000000E-01   4.000000E-01   4.000000E-01   4.000000E-01   4.000000E-01   4.000000E-01   4.000000E-01   4.000000E-01   4.000000E-01   4.000000E-01   4.000000E-01   4.000000E-01   4.000000E-01   4.000000E-01   4.000000E-01   4.000000E-01   4.000000E-01   4.000000E-01   4.000000E-01   4.000000E-01   4.000000E-01   4.000000E-01   4.000000E-01   4.000000E-01   4.000000E-01   4.000000E-01   4.000000E-01   4.000000E-01   4.000000E-01   4.000000E-01   4.000000E-01   4.000000E-01   4.000000E-01   4.000000E-01   4.000000E-01   4.000000E-01   4.000000E-01   4.000000E-01   4.000000E-01   4.000000E-01   4.000000E-01   4.000000E-01   4.000000E-01   4.000000E-01   4.000000E-01   4.000000E-01   4.000000E-01   4.000000E-01   4.000000E-01   4.000000E-01   4.000000E-01   4.000000E-01   4.000000E-01   4.000000E-01   4.000000E-01   4.000000E-01   4.000000E-01   4.000000E-01   4.000000E-01   4.000000E-01   4.000000E-01   