<?xml version="1.0"?>
<!-- Time =  6.0038362602810247E-01s -->
<VTKFile type="PolyData" version="0.1" byte_order="LittleEndian">
<PolyData>
<Piece NumberOfPoints="0000002400" NumberOfVerts="0" NumberOfLines="0" NumberOfStrips="0" NumberOfPolys="0">
<Points>
<DataArray type="Float32" Name="Position" NumberOfComponents="3" format="ascii">
  6.059471E-01   2.437116E-01   2.156559E-01   1.557096E+00   2.036957E-01   2.055714E-01   2.082555E+00   2.002543E-01   2.069029E-01   2.854147E+00   2.000339E-01   1.994211E-01   3.278564E+00   2.018862E-01   1.988623E-01   4.250899E+00   1.998499E-01   2.150503E-01   5.101346E+00   2.070201E-01   2.042176E-01   5.560244E+00   1.994407E-01   6.768531E-01   5.915694E+00   2.111973E-01   2.087514E-01   7.151280E+00   4.449783E-01   2.796385E-01   7.854238E+00   1.363081E+00   2.441678E-01   8.409127E+00   1.477701E+00   3.431319E-01   8.190495E+00   1.905635E+00   4.699214E-01   7.087495E+00   9.461030E-01   2.507356E-01   9.094450E+00   1.067834E+01   1.867979E+00   8.789581E+00   1.705619E+00   2.226520E-01   6.423025E+00   1.799755E+00   9.315159E-01   5.036872E+00   8.659483E-01   7.148778E-01   9.150927E+00   5.075182E-01   1.540427E+00   8.748857E+00   9.158685E-01   2.583000E+00   8.480939E+00   6.783631E-01   3.922550E-01   8.623698E+00   6.502660E-01   1.016675E+00   9.474619E+00   6.614693E-01   2.023710E-01   8.140029E+00   2.026195E-01   2.040540E-01   9.411409E+00   2.444333E-01   2.395183E-01   9.853348E+00   1.997651E-01   2.276646E-01   1.053282E+01   2.627237E-01   5.059985E-01   1.123293E+01   2.002701E-01   2.117922E-01   1.163243E+01   2.005992E-01   2.876789E-01   1.204470E+01   2.011203E-01   2.031011E-01   1.304464E+01   2.007690E-01   2.615142E-01   1.343021E+01   2.480575E-01   3.934487E-01   1.388510E+01   2.122568E-01   3.704891E-01   1.426910E+01   7.550169E-01   2.599918E-01   2.021344E-01   2.036808E-01   1.994070E-01   3.671551E-01   6.421200E-01   3.841253E-01   1.828468E+00   5.064741E-01   2.561026E-01   2.471237E+00   3.167613E-01   2.035700E-01   3.054033E+00   5.456222E-01   2.046610E-01   3.839891E+00   2.015481E-01   2.051172E-01   4.685708E+00   2.023942E-01   3.002690E-01   5.517704E+00   2.517522E-01   2.451695E-01   5.933679E+00   6.193129E-01   2.599747E-01   6.318530E+00   2.010387E-01   2.068337E-01   7.464007E+00   8.407930E-01   5.185648E-01   7.376476E+00   2.015159E+00   6.747131E-01   6.971697E+00   1.908726E+00   6.598619E-01   9.976871E+00   1.006465E+00   2.467214E-01   6.638306E+00   6.871054E-01   5.000267E-01   1.456641E+01   8.016278E+00   1.711062E+00   9.293711E+00   2.080389E+00   8.401697E-01   6.500055E+00   1.521601E+00   2.863161E+00   6.622756E+00   1.356436E+00   1.584468E+00   1.319452E+01   6.895614E-01   4.660121E+00   7.094989E+00   1.483256E+00   4.405065E-01   1.049098E+01   9.030510E-01   1.399683E+00   1.110432E+01   1.308453E+01   2.565793E+00   7.792293E+00   7.286851E-01   2.096289E-01   8.559109E+00   2.017615E-01   2.445377E-01   9.835151E+00   6.466407E-01   6.930081E-01   1.027499E+01   2.063775E-01   2.068981E-01   1.082347E+01   2.009447E-01   2.348648E-01   1.137725E+01   5.723264E-01   2.100804E-01   1.181964E+01   5.447264E-01   2.063232E-01   1.245060E+01   1.990581E-01   2.145935E-01   1.279212E+01   9.008997E-01   2.634105E-01   1.317467E+01   8.343607E-01   4.529843E-01   1.360364E+01   2.172312E+00   2.902926E-01   1.459627E+01   4.349873E-01   2.172577E-01   2.090214E-01   1.284985E+00   2.241599E-01   1.873193E+00   8.533075E-01   4.981693E-01   2.220789E+00   5.627319E-01   4.054688E-01   3.673073E+00   7.712163E-01   5.809989E-01   3.878751E+00   7.629136E-01   9.461247E-01   3.561948E+00   4.937816E-01   2.076768E-01   4.870038E+00   5.729422E-01   3.192539E-01   5.268469E+00   4.718257E-01   5.970833E-01   5.268598E+00   6.262464E-01   2.031215E-01   6.346567E+00   5.995886E-01   2.238194E-01   6.733964E+00   3.341898E-01   2.252223E-01   8.430540E+00   8.589319E+00   1.963317E+00   9.412605E+00   5.078172E+00   8.757713E-01   9.321920E+00   6.045855E+00   2.792535E-01   1.244810E+01   1.796054E+00   1.580094E+00   7.845035E+00   2.671313E+01   9.924179E-01   3.514009E+00   1.061207E+00   2.774820E+00   2.494309E+00   1.246299E+00   2.421645E+00   6.330492E+00   6.998762E-01   9.158601E-01   1.300867E+01   9.806062E+00   3.362550E+00   1.181769E+01   9.984884E-01   1.044364E+00   9.510830E+00   8.501179E-01   1.089540E+00   6.201350E+00   4.013356E+00   1.174749E+00   1.016719E+01   8.524776E+00   1.170995E+00   8.185847E+00   3.281233E-01   5.818114E-01   8.847146E+00   4.827213E-01   2.091783E-01   1.016133E+01   5.694934E-01   3.499727E-01   1.056066E+01   6.114107E-01   2.031892E-01   1.096050E+01   5.836067E-01   2.194347E-01   1.222518E+01   8.910416E-01   4.561763E-01   1.225437E+01   5.486800E-01   2.102782E-01   1.268602E+01   5.193738E-01   2.431424E-01   1.259888E+01   1.732485E+00   6.893601E-01   1.285963E+01   2.082887E+00   3.245364E-01   1.463129E+01   9.710164E-01   2.695313E-01   2.247992E-01   2.488263E-01   6.636855E-01   1.865760E+00   2.047836E-01   5.450251E-01   2.653517E+00   2.011066E-01   5.458172E-01   3.059694E+00   2.021925E-01   5.533783E-01   3.567892E+00   2.001225E-01   5.003781E-01   4.339486E+00   1.995992E-01   6.799790E-01   4.966760E+00   2.020823E-01   5.936285E-01   5.926070E+00   2.008262E-01   9.033140E-01   6.909135E+00   3.304665E-01   5.865865E-01   7.218056E+00   9.445453E-01   8.504336E-01   8.202972E+00   2.516915E+00   1.058151E+00   3.138657E+00   1.779826E+00   3.620500E+00   1.059601E+01   1.295720E+01   1.089100E+00   8.515538E+00   7.771572E+00   3.616020E-01   6.284862E+00   1.140178E+00   1.185827E+00   4.021111E+00   1.099398E+00   7.120472E-01   6.597136E+00   1.418819E+00   9.829312E-01   2.827523E+00   1.570252E+01   1.270486E+00   8.144982E+00   2.680323E+01   2.488526E+00   3.797952E+00   1.843990E+01   4.412255E+00   4.809576E+00   1.635143E+01   3.033432E+00   1.102691E+01   1.340816E+01   5.863150E-01   5.564694E+00   9.514294E-01   1.584599E+00   9.718664E+00   9.324270E+00   1.823861E+00   7.722421E+00   4.581074E-01   7.604717E-01   9.250382E+00   2.008395E-01   6.233932E-01   1.005498E+01   2.061032E-01   6.446975E-01   1.052170E+01   1.993630E-01   9.054722E-01   1.133576E+01   2.017985E-01   6.722848E-01   1.175832E+01   2.119128E-01   7.321683E-01   1.233238E+01   2.009862E-01   7.304454E-01   1.298082E+01   2.209916E-01   1.069461E+00   1.362050E+01   2.035998E-01   7.478867E-01   1.446335E+01   2.191955E-01   9.359362E-01   5.386939E-01   1.035119E+00   2.038602E-01   7.471453E-01   6.591661E-01   5.249051E-01   1.817421E+00   2.002086E-01   9.786049E-01   2.876169E+00   6.415380E-01   6.038232E-01   3.293995E+00   5.267350E-01   5.596541E-01   3.945741E+00   3.370961E-01   5.700179E-01   4.713588E+00   2.000995E-01   9.099242E-01   5.804599E+00   5.122522E-01   6.292016E-01   6.122804E+00   2.070382E-01   5.553670E-01   6.912165E+00   1.081412E+00   6.390660E-01   8.202518E+00   1.607528E+00   1.402185E+00   9.010735E+00   6.234470E+00   1.640324E+00   4.489343E+00   1.130353E+01   4.025697E+00   1.351816E+01   7.913428E+00   1.862893E+00   2.029212E+00   1.134523E+00   2.974142E+00   6.794472E+00   7.172120E+00   1.595129E+00   4.044381E+00   5.448598E-01   2.072635E-01   4.277534E+00   7.247570E-01   5.288888E-01   1.006501E+01   5.584261E-01   1.440345E+00   8.348506E+00   1.141512E+00   1.815101E+00   8.997153E+00   5.181564E-01   2.420017E+00   3.344109E+00   9.013442E-01   7.786045E-01   4.894217E+00   6.676550E+00   2.894129E+00   9.553660E+00   4.695014E+00   1.170233E+00   7.593497E+00   1.633865E+00   6.836608E-01   8.795329E+00   2.046743E-01   5.702283E-01   9.655482E+00   2.198405E-01   5.979058E-01   1.038717E+01   5.462465E-01   7.615793E-01   1.093165E+01   2.433349E-01   6.165913E-01   1.159814E+01   5.396267E-01   5.419442E-01   1.205572E+01   4.322606E-01   5.487226E-01   1.274168E+01   1.995349E-01   5.805013E-01   1.312510E+01   2.738722E-01   6.943907E-01   1.367550E+01   6.525697E-01   7.572021E-01   1.472892E+01   2.027521E-01   5.753523E-01   1.085946E+00   8.125375E-01   2.373463E+00   1.123088E+00   6.461017E-01   3.915797E-01   2.245834E+00   2.416388E-01   6.673963E-01   4.896791E+00   8.113207E-01   1.212241E+00   4.646100E+00   4.975650E-01   6.440759E-01   4.098091E+00   9.453042E-01   2.246954E-01   4.976598E+00   5.088590E-01   8.871788E-01   5.583194E+00   4.264924E-01   1.015514E+00   6.132929E+00   8.052233E-01   5.830882E-01   6.525468E+00   2.261876E-01   5.566455E-01   7.207905E+00   3.914771E+00   1.467225E+00   9.073618E+00   9.711531E+00   3.147358E+00   2.483548E+00   7.165750E+00   1.688280E+00   1.204129E+01   7.173710E+00   1.564666E+00   6.015464E+00   7.963539E-01   2.056908E+00   7.159251E+00   2.806942E+00   1.644294E+00   5.157544E+00   8.356233E-01   2.346129E+00   6.651306E+00   2.340069E+00   1.252946E+00   8.768159E+00   1.435509E+01   1.382371E+00   9.264702E+00   2.055360E+01   2.037868E+00   1.480948E+01   2.713055E+00   4.406841E+00   1.226953E+01   1.119906E+01   8.261378E-01   6.978025E+00   6.657865E+00   1.136523E+00   8.357921E+00   4.703029E+00   5.396757E-01   8.508661E+00   2.431051E-01   8.783902E-01   9.008563E+00   5.230400E-01   6.837011E-01   1.031303E+01   1.191841E+00   1.078103E+00   1.069390E+01   9.701563E-01   5.408200E-01   1.123184E+01   7.166860E-01   6.400617E-01   1.176613E+01   5.610648E-01   9.334998E-01   1.242883E+01   5.716397E-01   5.932542E-01   1.264238E+01   4.495263E-01   9.265059E-01   1.294211E+01   6.846824E-01   7.926738E-01   1.472936E+01   6.722144E-01   7.296690E-01   2.197469E-01   6.512386E-01   8.523387E-01   1.071944E+00   2.161893E-01   1.967887E-01   2.925184E+00   2.013032E-01   9.364544E-01   3.336142E+00   2.016166E-01   8.408292E-01   4.347376E+00   2.037041E-01   1.079809E+00   5.227521E+00   2.010188E-01   9.308400E-01   5.781173E+00   2.018851E-01   1.281835E+00   6.182777E+00   2.010661E-01  
[...]
<PointData Scalars="Diameter" Vectors="Velocity">
<DataArray type="Float32" Name="Diameter" format="ascii">
  4.000000E-01   4.000000E-01   4.000000E-01   4.000000E-01   4.000000E-01   4.000000E-01   4.000000E-01   4.000000E-01   4.000000E-01   4.000000E-01   4.000000E-01   4.000000E-01   4.000000E-01   4.000000E-01   4.000000E-01   4.000000E-01   4.000000E-01   4.000000E-01   4.000000E-01   4.000000E-01   4.000000E-01   4.000000E-01   4.000000E-01   4.000000E-01   4.000000E-01   4.000000E-01   4.000000E-01   4.000000E-01   4.000000E-01   4.000000E-01   4.000000E-01   4.000000E-01   4.000000E-01   4.000000E-01   4.000000E-01   4.000000E-01   4.000000E-01   4.000000E-01   4.000000E-01   4.000000E-01   4.000000E-01   4.000000E-01   4.000000E-01   4.000000E-01   4.000000E-01   4.000000E-01   4.000000E-01   4.000000E-01   4.000000E-01   4.000000E-01   4.000000E-01   4.000000E-01   4.000000E-01   4.000000E-01   4.000000E-01   4.000000E-01   4.000000E-01   4.000000E-01   4.000000E-01   4.000000E-01   4.000000E-01   4.000000E-01   4.000000E-01   4.000000E-01   4.000000E-01   4.000000E-01   4.000000E-01   4.000000E-01   4.000000E-01   4.000000E-01   4.000000E-01   4.000000E-01   4.000000E-01   4.000000E-01   4.000000E-01   4.000000E-01   4.000000E-01   4.000000E-01   4.000000E-01   4.000000E-01   4.000000E-01   4.000000E-01   4.000000E-01   4.000000E-01   4.000000E-01   4.000000E-01   4.000000E-01   4.000000E-01   4.000000E-01   4.000000E-01   4.000000E-01   4.000000E-01   4.000000E-01   4.000000E-01   4.000000E-01   4.000000E-01   4.000000E-01   4.000000E-01   4.000000E-01   4.000000E-01   4.000000E-01   4.000000E-01   4.000000E-01   4.000000E-01   4.000000E-01   4.000000E-01   4.000000E-01   4.000000E-01   4.000000E-01   4.000000E-01   4.000000E-01   4.000000E-01   4.000000E-01   4.000000E-01   4.000000E-01   4.000000E-01   4.000000E-01   4.000000E-01   4.000000E-01   4.000000E-01   4.000000E-01   4.000000E-01   4.000000E-01   4.000000E-01   4.000000E-01   4.000000E-01   4.000000E-01   4.000000E-01   4.000000E-01   4.000000E-01   4.000000E-01   4.000000E-01   4.000000E-01   4.000000E-01   4.000000E-01   4.000000E-01   4.000000E-01   4.000000E-01   4.000000E-01   4.000000E-01   4.000000E-01   4.000000E-01   4.000000E-01   4.000000E-01   4.000000E-01   4.000000E-01   4.000000E-01   4.000000E-01   4.000000E-01   4.000000E-01   4.000000E-01   4.000000E-01   4.000000E-01   4.000000E-01   4.000000E-01   4.000000E-01   4.000000E-01   4.000000E-01   4.000000E-01   4.000000E-01   4.000000E-01   4.000000E-01   4.000000E-01   4.000000E-01   4.000000E-01   4.000000E-01   4.000000E-01   4.000000E-01   4.000000E-01   4.000000E-01   4.000000E-01   4.000000E-01   4.000000E-01   4.000000E-01   4.000000E-01   4.000000E-01   4.000000E-01   4.000000E-01   4.000000E-01   4.000000E-01   4.000000E-01   4.000000E-01   4.000000E-01   4.000000E-01   4.000000E-01   4.000000E-01   4.000000E-01   4.000000E-01   4.000000E-01   4.000000E-01   4.000000E-01   4.000000E-01   4.000000E-01   4.000000E-01   4.000000E-01   4.000000E-01   4.000000E-01   4.000000E-01   4.000000E-01   4.000000E-01   4.000000E-01   4.000000E-01   4.000000E-01   4.000000E-01   4.000000E-01   4.000000E-01   4.000000E-01   4.000000E-01   4.000000E-01   4.000000E-01   4.000000E-01   4.000000E-01   4.000000E-01   4.000000E-01   4.000000E-01   4.000000E-01   4.000000E-01   4.000000E-01   4.000000E-01   4.000000E-01   4.000000E-01   4.000000E-01   4.000000E-01   4.000000E-01   4.000000E-01   4.000000E-01   4.000000E-01   4.000000E-01   4.000000E-01   4.000000E-01   4.000000E-01   4.000000E-01   4.000000E-01   4.000000E-01   4.000000E-01   4.000000E-01   4.000000E-01   4.000000E-01   4.000000E-01   4.000000E-01   4.000000E-01   4.000000E-01   4.000000E-01   4.000000E-01   4.000000E-01   4.000000E-01   4.000000E-01   4.000000E-01   4.000000E-01   4.000000E-01   4.000000E-01   4.000000E-01   4.000000E-01   4.000000E-01   4.000000E-01   4.000000E-01   4.000000E-01   4.000000E-01   4.000000E-01   4.000000E-01   4.000000E-01   4.000000E-01   4.000000E-01   4.000000E-01   4.000000E-01   4.000000E-01   4.000000E-01   4.000000E-01   4.000000E-01   4.000000E-01   4.000000E-01   4.000000E-01   4.000000E-01   4.000000E-01   4.000000E-01   4.000000E-01   4.000000E-01   4.000000E-01   4.000000E-01   4.000000E-01   4.000000E-01   4.000000E-01   4.000000E-01   4.000000E-01   4.000000E-01   4.000000E-01   4.000000E-01   4.000000E-01   4.000000E-01   4.000000E-01   4.000000E-01   4.000000E-01   4.000000E-01   4.000000E-01   4.000000E-01   4.000000E-01   4.000000E-01   4.000000E-01   4.000000E-01   4.000000E-01   4.000000E-01   4.000000E-01   4.000000E-01   4.000000E-01   4.000000E-01   4.000000E-01   4.000000E-01   4.000000E-01   4.000000E-01   4.000000E-01   4.000000E-01   4.000000E-01   4.000000E-01   4.000000E-01   4.000000E-01   4.000000E-01   4.000000E-01   4.000000E-01   4.000000E-01   4.000000E-01   4.000000E-01   4.000000E-01   4.000000E-01   4.000000E-01   4.000000E-01   4.000000E-01   4.000000E-01   4.000000E-01   4.000000E-01   4.000000E-01   4.000000E-01   4.000000E-01   4.000000E-01   4.000000E-01   4.000000E-01   4.000000E-01   4.000000E-01   4.000000E-01   4.000000E-01   4.000000E-01   4.000000E-01   4.000000E-01   4.000000E-01   4.000000E-01   4.000000E-01   4.000000E-01   4.000000E-01   4.000000E-01   4.000000E-01   4.000000E-01   4.000000E-01   4.000000E-01   4.000000E-01   4.000000E-01   4.000000E-01   4.000000E-01   4.000000E-01   4.000000E-01   4.000000E-01   4.000000E-01   4.000000E-01   4.000000E-01   4.000000E-01   4.000000E-01   4.000000E-01   4.000000E-01   4.000000E-01   4.000000E-01   4.000000E-01   4.000000E-01   4.000000E-01   4.000000E-01   4.000000E-01   4.000000E-01   4.000000E-01   4.000000E-01   4.000000E-01   4.000000E-01   4.000000E-01   4.000000E-01   4.000000E-01   4.000000E-01   4.000000E-01   4.000000E-01   4.000000E-01   4.000000E-01   4.000000E-01   4.000000E-01   4.000000E-01   4.000000E-01   4.000000E-01   4.000000E-01   4.000000E-01   4.000000E-01   4.000000E-01   4.000000E-01   4.000000E-01   4.000000E-01   4.000000E-01   4.000000E-01   4.000000E-01   4.000000E-01   4.000000E-01   4.000000E-01   4.000000E-01   4.000000E-01   4.000000E-01   4.000000E-01   4.000000E-01   4.000000E-01   4.000000E-01   4.000000E-01   4.000000E-01   4.000000E-01   4.000000E-01   4.000000E-01   4.000000E-01   4.000000E-01   4.000000E-01   4.000000E-01   4.000000E-01   4.000000E-01   4.000000E-01   4.000000E-01   4.000000E-01   4.000000E-01   4.000000E-01   4.000000E-01   4.000000E-01   4.000000E-01   4.000000E-01   4.000000E-01   4.000000E-01   4.000000E-01   4.000000E-01   4.000000E-01   4.000000E-01   4.000000E-01   4.000000E-01   4.000000E-01   4.000000E-01   4.000000E-01   4.000000E-01   4.000000E-01   4.000000E-01   4.000000E-01   4.000000E-01   4.000000E-01   4.000000E-01   4.000000E-01   4.000000E-01   4.000000E-01   4.000000E-01   4.000000E-01   4.000000E-01   4.000000E-01   4.000000E-01   4.000000E-01   4.000000E-01   4.000000E-01   4.000000E-01   4.000000E-01   4.000000E-01   4.000000E-01   4.000000E-01   4.000000E-01   4.000000E-01   4.000000E-01   4.000000E-01   4.000000E-01   4.000000E-01   4.000000E-01   4.000000E-01   4.000000E-01   4.000000E-01   4.000000E-01   4.000000E-01   4.000000E-01   4.000000E-01   4.000000E-01   4.000000E-01   4.000000E-01   4.000000E-01   4.000000E-01   4.000000E-01   4.000000E-01   4.000000E-01   4.000000E-01   4.000000E-01   4.000000E-01   4.000000E-01   4.000000E-01   4.000000E-01   4.000000E-01   4.000000E-01   4.000000E-01   4.000000E-01   4.000000E-01   4.000000E-01   4.000000E-01   4.000000E-01   4.000000E-01   4.000000E-01   4.000000E-01   4.000000E-01   4.000000E-01   4.000000E-01   4.000000E-01   4.000000E-01   4.000000E-01   4.000000E-01   4.000000E-01   4.000000E-01   4.000000E-01   4.000000E-01   4.000000E-01   4.000000E-01   4.000000E-01   4.000000E-01   4.000000E-01   4.000000E-01   4.000000E-01   4.000000E-01   4.000000E-01   4.000000E-01   4.000000E-01   4.000000E-01   4.000000E-01   4.000000E-01   4.000000E-01   4.000000E-01   4.000000E-01   4.000000E-01   4.000000E-01   4.000000E-01   4.000000E-01   4.000000E-01   4.000000E-01   4.000000E-01   4.000000E-01   4.000000E-01   4.000000E-01   4.000000E-01   4.000000E-01   4.000000E-01   4.000000E-01   4.000000E-01   4.000000E-01   4.000000E-01   4.000000E-01   4.000000E-01   4.000000E-01   4.000000E-01   4.000000E-01   4.000000E-01   4.000000E-01   4.000000E-01   4.000000E-01   4.000000E-01   4.000000E-01   4.000000E-01   4.000000E-01   4.000000E-01   4.000000E-01   4.000000E-01   4.000000E-01   4.000000E-01   4.000000E-01   4.000000E-01   4.000000E-01   4.000000E-01   4.000000E-01   4.000000E-01   4.000000E-01   4.000000E-01   4.000000E-01   4.000000E-01   4.000000E-01   4.000000E-01   4.000000E-01   4.000000E-01   4.000000E-01   4.000000E-01   4.000000E-01   4.000000E-01   4.000000E-01   4.000000E-01   4.000000E-01   4.000000E-01   4.000000E-01   4.000000E-01   4.000000E-01   4.000000E-01   4.000000E-01   4.000000E-01   4.000000E-01   4.000000E-01   4.000000E-01   4.000000E-01   4.000000E-01   4.000000E-01   4.000000E-01   4.000000E-01   4.000000E-01   4.000000E-01   4.000000E-01   4.000000E-01   4.000000E-01   4.000000E-01   4.000000E-01   4.000000E-01   4.000000E-01   4.000000E-01   4.000000E-01   4.000000E-01   4.000000E-01   4.000000E-01   4.000000E-01   4.000000E-01   4.000000E-01   4.000000E-01   4.000000E-01   4.000000E-01   4.000000E-01   4.000000E-01   4.000000E-01   4.000000E-01   4.000000E-01   4.000000E-01   4.000000E-01   4.000000E-01   4.000000E-01   4.000000E-01   4.000000E-01   4.000000E-01   4.000000E-01   4.000000E-01   4.000000E-01   4.000000E-01   4.000000E-01   4.000000E-01   4.000000E-01   4.000000E-01   4.000000E-01   4.000000E-01   4.000000E-01   4.000000E-01   4.000000E-01   4.000000E-01   4.000000E-01   4.000000E-01   4.000000E-01   4.000000E-01   4.000000E-01   4.000000E-01   4.000000E-01   4.000000E-01   4.000000E-01   4.000000E-01   4.000000E-01   4.000000E-01   4.000000E-01   4.000000E-01   4.000000E-01   4.000000E-01   4.000000E-01   4.000000E-01   4.000000E-01   4.000000E-01   4.000000E-01   4.000000E-01   4.000000E-01   4.000000E-01   4.000000E-01   4.000000E-01   4.000000E-01   4.000000E-01   4.000000E-01   4.000000E-01   4.000000E-01   4.000000E-01   4.000000E-01   4.000000E-01   4.000000E-01   4.000000E-01   4.000000E-01   4.000000E-01   4.000000E-01   4.000000E-01   4.000000E-01   4.000000E-01   4.000000E-01   4.000000E-01   4.000000E-01   4.000000E-01   4.000000E-01   4.000000E-01   4.000000E-01   4.000000E-01   4.000000E-01   4.000000E-01   4.000000E-01   4.000000E-01   4.000000E-01   4.000000E-01   4.000000E-01   4.000000E-01   4.000000E-01   4.000000E-01   4.000000E-01   4.000000E-01   4.000000E-01   4.000000E-01   4.000000E-01   4.000000E-01   4.000000E-01   4.000000E-01   4.000000E-01   4.000000E-01   4.000000E-01   4.000000E-01   4.000000E-01   4.000000E-01   4.000000E-01   4.000000E-01   4.000000E-01   4.000000E-01   4.000000E-01   4.000000E-01   4.000000E-01   4.000000E-01   4.000000E-01   4.000000E-01   4.000000E-01   4.000000E-01   4.000000E-01   4.000000E-01   4.000000E-01   4.000000E-01   4.000000E-01   4.000000E-01   4.000000E-01   4.000000E-01   4.000000E-01   4.000000E-01   4.000000E-01   4.000000E-01   4.000000E-01   4.000000E-01   4.000000E-01   4.000000E-01   4.000000E-01   4.000000E-01   4.000000E-01   4.000000E-01   4.000000E-01   4.000000E-01   4.000000E-01   4.000000E-01   4.000000E-01   4.000000E-01   4.000000E-01   4.000000E-01   4.000000E-01   4.000000E-01   4.000000E-01   4.000000E-01   4.000000E-01   4.000000E-01   4.000000E-01   4.000000E-01   4.000000E-01   4.000000E-01   4.000000E-01   4.000000E-01   4.000000E-01   4.000000E-01   4.000000E-01   4.000000E-01   4.000000E-01   4.000000E-01   4.000000E-01   4.000000E-01   4.000000E-01   4.000000E-01   4.000000E-01   4.000000E-01   4.000000E-01   4.000000E-01   4.000000E-01   4.000000E-01   4.000000E-01   4.000000E-01   4.000000E-01   4.000000E-01   4.000000E-01   4.000000E-01   4.000000E-01   4.000000E-01   4.000000E-01   4.000000E-01   4.000000E-01   4.000000E-01   4.000000E-01   4.000000E-01   4.000000E-01   4.000000E-01   4.000000E-01   4.000000E-01   4.000000E-01   4.000000E-01   4.000000E-01   4.000000E-01   4.000000E-01   4.000000E-01   4.000000E-01   4.000000E-01   4.000000E-01   4.000000E-01   4.000000E-01   4.000000E-01   4.000000E-01   4.000000E-01   4.000000E-01   4.000000E-01   4.000000E-01   4.000000E-01   4.000000E-01   4.000000E-01   4.000000E-01   4.000000E-01   4.000000E-01   4.000000E-01   4.000000E-01   4.000000E-01   4.000000E-01   4.000000E-01   4.000000E-01   4.000000E-01   4.000000E-01   4.000000E-01   4.000000E-01   4.000000E-01   4.000000E-01   4.000000E-01   4.000000E-01   4.000000E-01   4.000000E-01   4.000000E-01   4.000000E-01   4.000000E-01   4.000000E-01   4.000000E-01   4.000000E-01   4.000000E-01   4.000000E-01   4.000000E-01   4.000000E-01   4.000000E-01   4.000000E-01   4.000000E-01   4.000000E-01   4.000000E-01   4.000000E-01   4.000000E-01   4.000000E-01   4.000000E-01   4.000000E-01   4.000000E-01   4.000000E-01   4.000000E-01   4.000000E-01   4.000000E-01   4.000000E-01   4.000000E-01   4.000000E-01   4.000000E-01   4.000000E-01   4.000000E-01   4.000000E-01   4.000000E-01   4.000000E-01   4.000000E-01   4.000000E-01   4.000000E-01   4.000000E-01   4.000000E-01   4.000000E-01   4.000000E-01   4.000000E-01   4.000000E-01   4.000000E-01   4.000000E-01   4.000000E-01   4.000000E-01   4.000000E-01   4.000000E-01   4.000000E-01   4.000000E-01   4.000000E-01   4.000000E-01   4.000000E-01   4.000000E-01   4.000000E-01   4.000000E-01   4.000000E-01   4.000000E-01   4.000000E-01   4.000000E-01   4.000000E-01   4.000000E-01   4.000000E-01   4.000000E-01   4.000000E-01   4.000000E-01   4.000000E-01   4.000000E-01   4.000000E-01   4.000000E-01   4.000000E-01   4.000000E-01   4.000000E-01   4.000000E-01   4.000000E-01   4.000000E-01   4.000000E-01   4.000000E-01   4.000000E-01   4.000000E-01   4.000000E-01   4.000000E-01   4.000000E-01   4.000000E-01   4.000000E-01   4.000000E-01   4.000000E-01   4.000000E-01   4.000000E-01   4.000000E-01   4.000000E-01   4.000000E-01   4.000000E-01   4.000000E-01   4.000000E-01   4.000000E-01   4.000000E-01   4.000000E-01   4.000000E-01   4.000000E-01   4.000000E-01   4.000000E-01   4.000000E-01   4.000000E-01   4.000000E-01   4.000000E-01   4.000000E-01   4.000000E-01   4.000000E-01   4.000000E-01   4.000000E-01   4.000000E-01   4.000000E-01   4.000000E-01   4.000000E-01   4.000000E-01   4.000000E-01   4.000000E-01   4.000000E-01   4.000000E-01   4.000000E-01   4.000000E-01   4.000000E-01   4.000000E-01   4.000000E-01   4.000000E-01   4.000000E-01   4.000000E-01   4.000000E-01   4.000000E-01   4.000000E-01   4.000000E-01   4.000000E-01   4.000000E-01   4.000000E-01   4.000000E-01   4.000000E-01   4.000000E-01   4.000000E-01   4.000000E-01   4.000000E-01   4.000000E-01   4.000000E-01   4.000000E-01   4.000000E-01   4.000000E-01   4.000000E-01   4.000000E-01   4.000000E-01   4.000000E-01   4.000000E-01   4.000000E-01   4.000000E-01   4.000000E-01   4.000000E-01   4.000000E-01   4.000000E-01   4.000000E-01   4.000000E-01   4.000000E-01   4.000000E-01   4.000000E-01   4.000000E-01   4.000000E-01   4.000000E-01   4.000000E-01   4.000000E-01   4.000000E-01   4.000000E-01   4.000000E-01   4.000000E-01   4.000000E-01   4.000000E-01   4.000000E-01   4.000000E-01   4.000000E-01   4.000000E-01   4.000000E-01   4.000000E-01   4.000000E-01   4.000000E-01   4.000000E-01   4.000000E-01   4.000000E-01   4.000000E-01   4.000000E-01   4.000000E-01   4.000000E-01   4.000000E-01   4.000000E-01   4.000000E-01   4.000000E-01   4.000000E-01   4.000000E-01   4.000000E-01   4.000000E-01   4.000000E-01   4.000000E-01   4.000000E-01   4.000000E-01   4.000000E-01   4.000000E-01   4.000000E-01   4.000000E-01   4.000000E-01   4.000000E-01   4.000000E-01   4.000000E-01   4.000000E-01   4.000000E-01   4.000000E-01   4.000000E-01   4.000000E-01   4.000000E-01   4.000000E-01   4.000000E-01   4.000000E-01   4.000000E-01   4.000000E-01   4.000000E-01   4.000000E-01   4.000000E-01   4.000000E-01   4.000000E-01   4.000000E-01   4.000000E-01   4.000000E-01   4.000000E-01   4.000000E-01   4.000000E-01   4.000000E-01   4.000000E-01   4.000000E-01   4.000000E-01   4.000000E-01   4.000000E-01   4.000000E-01   4.000000E-01   4.000000E-01   4.000000E-01   4.000000E-01   4.000000E-01   4.000000E-01   4.000000E-01   4.000000E-01   4.000000E-01   4.000000E-01   4.000000E-01   4.000000E-01   4.000000E-01   4.000000E-01   4.000000E-01   4.000000E-01   4.000000E-01   4.000000E-01   4.000000E-01   4.000000E-01   4.000000E-01   4.000000E-01   4.000000E-01   4.000000E-01   4.000000E-01   4.000000E-01   4.000000E-01   4.000000E-01   4.000000E-01   4.000000E-01   4.000000E-01   4.000000E-01   4.000000E-01   4.000000E-01   4.000000E-01   4.000000E-01   4.000000E-01   4.000000E-01   4.000000E-01   4.000000E-01   4.000000E-01   4.000000E-01   4.000000E-01   4.000000E-01   4.000000E-01   4.000000E-01   4.000000E-01   4.000000E-01   4.000000E-01   4.000000E-01   4.000000E-01   4.000000E-01   4.000000E-01   4.000000E-01   4.000000E-01   4.000000E-01   4.000000E-01   4.000000E-01   4.000000E-01   4.000000E-01   4.000000E-01   4.000000E-01   4.000000E-01   4.000000E-01   4.000000E-01   4.000000E-01   4.000000E-01   4.000000E-01   4.000000E-01   4.000000E-01   4.000000E-01   4.000000E-01   4.000000E-01   4.000000E-01   4.000000E-01   4.000000E-01   4.000000E-01   4.000000E-01   4.000000E-01   4.000000E-01   4.000000E-01   4.000000E-01   4.000000E-01   4.000000E-01   4.000000E-01   4.000000E-01   4.000000E-01   4.000000E-01   4.000000E-01   4.000000E-01   4.000000E-01   4.000000E-01   4.000000E-01   4.000000E-01   4.000000E-01   4.000000E-01   4.000000E-01   4.000000E-01   4.000000E-01   4.000000E-01   4.000000E-01   4.000000E-01   4.000000E-01   4.000000E-01   4.000000E-01   4.000000E-01   4.000000E-01   4.000000E-01   4.000000E-01   4.000000E-01   4.000000E-01   4.000000E-01   4.000000E-01   4.000000E-01   4.000000E-01   4.000000E-01   4.000000E-01   4.000000E-01   4.000000E-01   4.000000E-01   4.000000E-01   4.000000E-01   4.000000E-01   4.000000E-01   4.000000E-01   4.000000E-01   4.000000E-01   4.000000E-01   4.000000E-01   4.000000E-01   4.000000E-01   4.000000E-01   4.000000E-01   4.000000E-01   4.000000E-01   4.000000E-01   4.000000E-01   4.000000E-01   4.000000E-01   4.000000E-01   4.000000E-01   4.000000E-01   4.000000E-01   4.000000E-01   4.000000E-01   4.000000E-01   4.000000E-01   4.000000E-01   4.000000E-01   4.000000E-01   4.000000E-01   4.000000E-01   4.000000E-01   4.000000E-01   4.000000E-01   4.000000E-01   4.000000E-01   4.000000E-01   4.000000E-01   4.000000E-01   4.000000E-01   4.000000E-01   4.000000E-01   4.000000E-01   4.000000E-01   4.000000E-01   4.000000E-01   4.000000E-01   4.000000E-01   4.000000E-01   4.000000E-01   4.000000E-01   4.000000E-01   4.000000E-01   4.000000E-01   4.000000E-01   4.000000E-01   4.000000E-01   4.000000E-01   4.000000E-01   4.000000E-01   4.000000E-01   4.000000E-01   4.000000E-01   4.000000E-01   4.000000E-01   4.000000E-01   4.000000E-01   4.000000E-01   4.000000E-01   4.000000E-01   4.000000E-01   4.000000E-01   4.000000E-01   4.000000E-01   4.000000E-01   4.000000E-01   4.000000E-01   4.000000E-01   4.000000E-01   4.000000E-01   4.000000E-01   4.000000E-01   4.000000E-01   4.000000E-01   4.000000E-01   4.000000E-01   4.000000E-01   4.000000E-01   4.000000E-01   4.000000E-01   4.000000E-01   4.000000E-01   4.000000E-01   4.000000E-01   4.000000E-01   4.000000E-01   4.000000E-01   4.000000E-01   4.000000E-01   4.000000E-01   4.000000E-01   4.000000E-01   4.000000E-01   4.000000E-01   4.000000E-01   4.000000E-01   4.000000E-01   4.000000E-01   4.000000E-01   4.000000E-01   4.000000E-01   4.000000E-01   4.000000E-01   4.000000E-01   4.000000E-01   4.000000E-01   4.000000E-01   4.000000E-01   4.000000E-01   