<?xml version="1.0"?>
<!-- Time =  5.0078362602810211E-01s -->
<VTKFile type="PolyData" version="0.1" byte_order="LittleEndian">
<PolyData>
<Piece NumberOfPoints="0000002400" NumberOfVerts="0" NumberOfLines="0" NumberOfStrips="0" NumberOfPolys="0">
<Points>
<DataArray type="Float32" Name="Position" NumberOfComponents="3" format="ascii">
  4.998708E-01   2.104056E-01   2.697999E-01   9.200807E-01   2.082506E-01   2.596279E-01   1.600941E+00   2.049442E-01   2.022815E-01   2.167576E+00   2.001034E-01   2.074665E-01   2.578614E+00   1.996595E-01   2.007909E-01   3.723058E+00   2.046117E-01   2.285603E-01   4.346462E+00   2.018529E-01   2.054024E-01   4.754450E+00   2.022038E-01   4.229629E-01   5.086278E+00   1.994886E-01   1.996648E-01   5.925927E+00   1.991905E-01   1.988181E-01   6.415127E+00   1.998953E-01   2.012095E-01   6.844413E+00   2.382470E-01   2.027041E-01   7.145779E+00   6.560485E-01   2.470346E-01   6.219472E+00   9.245197E-01   3.779573E-01   6.999090E+00   1.909977E+00   9.021947E-01   7.244353E+00   1.238436E+00   2.077596E-01   6.985024E+00   1.793432E+00   2.665794E-01   4.171189E+00   2.345872E+01   4.297292E+00   4.356051E+00   9.629626E-01   5.468572E-01   9.910711E+00   6.960734E-01   1.566695E+00   8.544851E+00   6.520159E-01   1.921315E+00   8.446939E+00   6.483122E-01   7.736513E-01   8.500888E+00   9.577368E-01   3.190601E-01   7.881339E+00   5.277059E-01   2.351873E-01   8.838144E+00   2.174249E-01   2.020588E-01   9.893671E+00   2.002980E-01   1.999812E-01   1.031482E+01   2.018761E-01   2.023829E-01   1.114544E+01   2.003284E-01   3.452369E-01   1.161775E+01   2.257852E-01   2.031353E-01   1.213548E+01   1.994045E-01   2.491646E-01   1.253667E+01   1.996255E-01   2.002725E-01   1.314008E+01   1.998381E-01   2.010820E-01   1.363676E+01   1.992313E-01   1.998595E-01   1.403899E+01   2.006564E-01   2.003177E-01   1.444017E+01   2.009591E-01   2.027806E-01   2.219282E-01   5.879470E-01   2.656107E-01   6.502876E-01   1.922384E-01   7.473570E-01   1.244617E+00   4.839582E-01   1.962235E-01   1.876971E+00   5.123442E-01   2.131476E-01   2.352918E+00   5.478451E-01   2.969392E-01   3.297443E+00   2.077930E-01   2.382867E-01   4.043499E+00   2.300780E-01   4.686752E-01   4.608099E+00   5.036303E-01   2.013872E-01   4.999361E+00   5.892678E-01   1.989367E-01   5.494062E+00   2.350845E-01   2.027853E-01   6.154885E+00   5.378292E-01   2.142963E-01   6.554809E+00   5.552255E-01   3.257414E-01   6.842739E+00   1.055854E+00   4.050132E-01   7.784246E+00   9.310066E-01   2.294018E-01   5.787930E+00   1.066219E+00   4.951422E-01   1.159299E+01   1.313077E+01   2.289538E+00   7.598536E+00   1.590249E+00   3.391890E-01   5.763607E+00   8.642604E-01   2.953593E+00   5.669914E+00   8.107399E-01   1.371597E+00   1.401510E+01   8.598862E+00   3.432779E+00   6.733672E+00   2.162721E+00   1.996423E-01   8.165348E+00   1.495093E+00   7.076697E-01   7.917806E+00   3.277822E+00   1.279062E+00   8.428770E+00   2.368643E-01   2.023787E-01   9.291769E+00   2.134274E-01   2.087163E-01   1.011385E+01   5.508727E-01   2.379884E-01   1.077098E+01   2.005223E-01   2.054368E-01   1.133535E+01   5.287656E-01   2.162289E-01   1.191689E+01   5.345390E-01   2.508632E-01   1.232415E+01   5.500772E-01   1.993572E-01   1.283770E+01   4.623673E-01   2.156732E-01   1.338714E+01   5.162118E-01   2.064922E-01   1.383422E+01   5.479862E-01   2.049218E-01   1.423949E+01   5.471512E-01   2.014065E-01   1.480007E+01   3.802089E-01   2.023985E-01   3.366361E-01   1.166933E+00   5.983838E-01   1.147757E+00   9.199279E-01   2.214451E-01   1.614700E+00   8.635882E-01   2.992948E-01   2.353170E+00   9.945551E-01   4.406314E-01   2.285181E+00   7.753506E-01   1.142610E+00   2.815180E+00   5.295903E-01   2.283627E-01   4.126216E+00   5.338959E-01   2.016963E-01   4.516724E+00   5.742108E-01   5.855122E-01   4.728982E+00   8.830165E-01   2.354503E-01   5.337596E+00   8.058648E-01   2.031239E-01   5.728061E+00   5.666344E-01   2.059971E-01   6.925386E+00   1.108177E+00   1.286679E+00   7.443484E+00   1.203391E+00   6.643447E-01   7.350657E+00   5.950242E+00   7.113731E-01   9.913401E+00   5.713072E+00   1.293388E+00   7.374855E+00   1.782447E+01   1.859402E+00   5.748915E+00   2.991184E+00   1.320003E+00   4.983643E+00   3.685966E+00   9.833331E-01   5.487228E+00   9.260979E-01   7.526268E-01   1.183872E+01   1.396145E+01   2.565813E+00   1.359346E+01   4.386736E+00   1.251091E+00   1.014159E+01   9.660647E-01   9.351351E-01   6.546164E+00   1.364045E+00   5.136451E-01   7.731884E+00   1.441347E+00   8.171694E-01   9.058226E+00   5.377299E-01   2.887723E-01   9.634073E+00   5.081468E-01   2.123258E-01   1.052327E+01   5.423358E-01   2.079650E-01   1.092690E+01   5.734226E-01   2.124514E-01   1.161891E+01   8.112572E-01   2.163061E-01   1.243880E+01   1.164002E+00   3.108436E-01   1.267928E+01   8.269714E-01   2.685259E-01   1.309025E+01   7.548439E-01   3.263212E-01   1.356185E+01   7.711877E-01   4.626718E-01   1.405273E+01   8.433098E-01   3.976069E-01   1.454325E+01   5.526746E-01   4.590149E-01   2.560694E-01   3.801295E-01   6.880391E-01   1.324378E+00   2.055683E-01   4.988725E-01   1.878339E+00   2.082286E-01   4.958545E-01   2.373891E+00   2.173813E-01   5.708364E-01   2.878284E+00   2.023612E-01   4.887472E-01   3.612120E+00   2.182711E-01   6.179671E-01   4.448466E+00   2.014537E-01   7.103766E-01   4.902262E+00   1.994473E-01   7.983290E-01   5.705482E+00   2.015170E-01   5.405661E-01   6.169699E+00   2.441177E-01   5.425935E-01   6.597555E+00   2.046836E-01   5.849732E-01   5.957389E+00   2.936259E+00   2.060259E+00   8.072855E+00   6.064168E+00   8.974838E-01   6.928974E+00   5.915298E+00   9.488584E-01   5.513768E+00   4.325341E+00   7.911795E-01   4.032290E+00   7.657051E+00   4.759375E-01   6.311010E+00   1.582887E+00   1.150678E+00   4.786848E+00   2.400425E+01   1.223499E+00   8.180117E+00   3.031178E+01   2.222575E+00   5.587709E+00   2.284735E+01   3.833045E+00   5.774467E+00   1.683871E+01   2.599098E+00   9.274406E+00   1.131900E+01   1.797907E+00   6.050609E+00   2.611252E+00   1.096159E+00   7.662972E+00   9.809610E-01   9.634515E-01   9.007873E+00   1.999179E-01   5.753692E-01   9.991617E+00   2.053369E-01   5.888773E-01   1.067233E+01   2.016307E-01   6.119926E-01   1.116184E+01   2.005216E-01   8.169245E-01   1.184862E+01   2.005862E-01   6.595958E-01   1.236515E+01   1.998719E-01   7.614003E-01   1.278836E+01   2.000888E-01   7.215040E-01   1.324392E+01   2.008619E-01   8.617366E-01   1.384631E+01   2.002915E-01   5.907394E-01   1.441494E+01   2.010878E-01   8.729773E-01   2.512837E-01   7.741567E-01   6.389676E-01   5.935320E-01   5.296521E-01   9.623650E-01   1.620357E+00   2.003799E-01   8.394313E-01   2.019714E+00   5.827022E-01   6.560664E-01   2.655147E+00   5.264761E-01   6.292117E-01   3.152688E+00   4.928249E-01   4.846925E-01   3.945220E+00   1.991892E-01   8.623920E-01   4.916065E+00   5.390377E-01   5.874140E-01   5.239494E+00   2.199837E-01   5.686274E-01   5.863189E+00   6.184253E-01   7.092050E-01   6.338680E+00   2.005417E-01   9.024240E-01   6.977319E+00   7.316827E-01   6.489596E-01   5.520566E+00   9.395559E+00   2.029212E+00   1.337050E+01   1.590075E+01   2.359229E+00   2.810837E+00   8.976123E+00   2.590662E+00   6.701784E+00   9.640418E-01   8.391489E-01   3.518065E+00   5.563241E-01   2.625729E-01   3.641018E+00   8.816636E-01   6.304899E-01   1.163001E+01   1.443630E+00   1.906711E+00   8.564697E+00   5.084350E-01   1.203262E+00   9.241035E+00   6.970963E-01   2.068392E+00   2.290261E+00   1.935878E+00   1.057168E+00   6.737355E+00   4.816956E+00   1.320949E+00   8.049939E+00   9.746214E-01   7.566677E-01   8.435861E+00   2.008979E-01   6.124756E-01   9.604171E+00   2.025261E-01   4.758685E-01   1.033989E+01   4.126669E-01   5.462952E-01   1.095309E+01   4.893563E-01   6.277498E-01   1.149990E+01   3.921765E-01   7.139305E-01   1.212945E+01   4.821509E-01   6.048858E-01   1.255370E+01   4.494247E-01   5.117719E-01   1.307317E+01   4.119807E-01   5.352837E-01   1.346223E+01   3.104956E-01   5.428072E-01   1.422873E+01   3.102320E-01   5.356185E-01   1.479590E+01   1.997907E-01   5.595916E-01   4.480288E-01   9.202537E-01   1.904829E+00   6.928679E-01   5.189875E-01   4.921160E-01   1.598964E+00   4.980618E-01   4.923318E-01   4.060496E+00   9.296358E-01   1.094801E+00   3.856425E+00   5.429782E-01   6.642740E-01   3.256423E+00   1.023470E+00   4.021426E-01   4.235004E+00   4.952587E-01   8.993442E-01   4.667209E+00   4.871186E-01   9.491196E-01   5.085848E+00   8.933992E-01   5.120831E-01   5.432312E+00   5.756786E-01   5.627614E-01   6.479986E+00   4.803044E-01   1.153448E+00   7.286376E+00   1.120801E+00   1.058163E+00   4.766656E+00   7.733170E+00   1.471009E+00   9.526642E+00   7.123198E+00   2.135830E+00   5.077199E+00   1.190338E+00   1.791751E+00   6.385050E+00   5.588726E-01   7.000018E-01   4.134501E+00   8.607286E-01   1.954708E+00   6.149382E+00   6.911939E-01   1.267388E+00   7.474999E+00   3.275448E+00   1.441005E+00   8.700820E+00   1.355215E+01   1.858489E+00   1.402750E+01   8.527413E-01   2.983210E+00   1.102723E+01   1.462638E+01   3.965708E+00   9.894423E+00   1.083190E+01   1.642443E+00   7.256530E+00   2.677188E+00   8.052019E-01   8.057046E+00   5.352091E-01   8.548161E-01   9.360719E+00   4.571228E-01   6.718553E-01   9.774189E+00   5.181453E-01   7.206823E-01   1.060596E+01   5.437506E-01   8.172715E-01   1.124815E+01   7.624984E-01   6.099502E-01   1.171857E+01   7.266277E-01   6.057514E-01   1.244869E+01   8.071114E-01   7.166781E-01   1.282893E+01   7.154909E-01   6.279938E-01   1.331016E+01   6.485087E-01   7.602393E-01   1.388371E+01   6.005887E-01   6.671597E-01   1.478505E+01   5.942153E-01   7.751681E-01   2.993613E-01   2.628618E-01   1.259656E+00   1.043413E+00   2.213789E-01   7.855123E-01   2.053076E+00   2.065489E-01   8.590673E-01   2.693517E+00   2.026425E-01   8.741234E-01   3.608698E+00   2.102441E-01   1.086709E+00   4.417431E+00   2.013667E-01  
[...]
<PointData Scalars="Diameter" Vectors="Velocity">
<DataArray type="Float32" Name="Diameter" format="ascii">
  4.000000E-01   4.000000E-01   4.000000E-01   4.000000E-01   4.000000E-01   4.000000E-01   4.000000E-01   4.000000E-01   4.000000E-01   4.000000E-01   4.000000E-01   4.000000E-01   4.000000E-01   4.000000E-01   4.000000E-01   4.000000E-01   4.000000E-01   4.000000E-01   4.000000E-01   4.000000E-01   4.000000E-01   4.000000E-01   4.000000E-01   4.000000E-01   4.000000E-01   4.000000E-01   4.000000E-01   4.000000E-01   4.000000E-01   4.000000E-01   4.000000E-01   4.000000E-01   4.000000E-01   4.000000E-01   4.000000E-01   4.000000E-01   4.000000E-01   4.000000E-01   4.000000E-01   4.000000E-01   4.000000E-01   4.000000E-01   4.000000E-01   4.000000E-01   4.000000E-01   4.000000E-01   4.000000E-01   4.000000E-01   4.000000E-01   4.000000E-01   4.000000E-01   4.000000E-01   4.000000E-01   4.000000E-01   4.000000E-01   4.000000E-01   4.000000E-01   4.000000E-01   4.000000E-01   4.000000E-01   4.000000E-01   4.000000E-01   4.000000E-01   4.000000E-01   4.000000E-01   4.000000E-01   4.000000E-01   4.000000E-01   4.000000E-01   4.000000E-01   4.000000E-01   4.000000E-01   4.000000E-01   4.000000E-01   4.000000E-01   4.000000E-01   4.000000E-01   4.000000E-01   4.000000E-01   4.000000E-01   4.000000E-01   4.000000E-01   4.000000E-01   4.000000E-01   4.000000E-01   4.000000E-01   4.000000E-01   4.000000E-01   4.000000E-01   4.000000E-01   4.000000E-01   4.000000E-01   4.000000E-01   4.000000E-01   4.000000E-01   4.000000E-01   4.000000E-01   4.000000E-01   4.000000E-01   4.000000E-01   4.000000E-01   4.000000E-01   4.000000E-01   4.000000E-01   4.000000E-01   4.000000E-01   4.000000E-01   4.000000E-01   4.000000E-01   4.000000E-01   4.000000E-01   4.000000E-01   4.000000E-01   4.000000E-01   4.000000E-01   4.000000E-01   4.000000E-01   4.000000E-01   4.000000E-01   4.000000E-01   4.000000E-01   4.000000E-01   4.000000E-01   4.000000E-01   4.000000E-01   4.000000E-01   4.000000E-01   4.000000E-01   4.000000E-01   4.000000E-01   4.000000E-01   4.000000E-01   4.000000E-01   4.000000E-01   4.000000E-01   4.000000E-01   4.000000E-01   4.000000E-01   4.000000E-01   4.000000E-01   4.000000E-01   4.000000E-01   4.000000E-01   4.000000E-01   4.000000E-01   4.000000E-01   4.000000E-01   4.000000E-01   4.000000E-01   4.000000E-01   4.000000E-01   4.000000E-01   4.000000E-01   4.000000E-01   4.000000E-01   4.000000E-01   4.000000E-01   4.000000E-01   4.000000E-01   4.000000E-01   4.000000E-01   4.000000E-01   4.000000E-01   4.000000E-01   4.000000E-01   4.000000E-01   4.000000E-01   4.000000E-01   4.000000E-01   4.000000E-01   4.000000E-01   4.000000E-01   4.000000E-01   4.000000E-01   4.000000E-01   4.000000E-01   4.000000E-01   4.000000E-01   4.000000E-01   4.000000E-01   4.000000E-01   4.000000E-01   4.000000E-01   4.000000E-01   4.000000E-01   4.000000E-01   4.000000E-01   4.000000E-01   4.000000E-01   4.000000E-01   4.000000E-01   4.000000E-01   4.000000E-01   4.000000E-01   4.000000E-01   4.000000E-01   4.000000E-01   4.000000E-01   4.000000E-01   4.000000E-01   4.000000E-01   4.000000E-01   4.000000E-01   4.000000E-01   4.000000E-01   4.000000E-01   4.000000E-01   4.000000E-01   4.000000E-01   4.000000E-01   4.000000E-01   4.000000E-01   4.000000E-01   4.000000E-01   4.000000E-01   4.000000E-01   4.000000E-01   4.000000E-01   4.000000E-01   4.000000E-01   4.000000E-01   4.000000E-01   4.000000E-01   4.000000E-01   4.000000E-01   4.000000E-01   4.000000E-01   4.000000E-01   4.000000E-01   4.000000E-01   4.000000E-01   4.000000E-01   4.000000E-01   4.000000E-01   4.000000E-01   4.000000E-01   4.000000E-01   4.000000E-01   4.000000E-01   4.000000E-01   4.000000E-01   4.000000E-01   4.000000E-01   4.000000E-01   4.000000E-01   4.000000E-01   4.000000E-01   4.000000E-01   4.000000E-01   4.000000E-01   4.000000E-01   4.000000E-01   4.000000E-01   4.000000E-01   4.000000E-01   4.000000E-01   4.000000E-01   4.000000E-01   4.000000E-01   4.000000E-01   4.000000E-01   4.000000E-01   4.000000E-01   4.000000E-01   4.000000E-01   4.000000E-01   4.000000E-01   4.000000E-01   4.000000E-01   4.000000E-01   4.000000E-01   4.000000E-01   4.000000E-01   4.000000E-01   4.000000E-01   4.000000E-01   4.000000E-01   4.000000E-01   4.000000E-01   4.000000E-01   4.000000E-01   4.000000E-01   4.000000E-01   4.000000E-01   4.000000E-01   4.000000E-01   4.000000E-01   4.000000E-01   4.000000E-01   4.000000E-01   4.000000E-01   4.000000E-01   4.000000E-01   4.000000E-01   4.000000E-01   4.000000E-01   4.000000E-01   4.000000E-01   4.000000E-01   4.000000E-01   4.000000E-01   4.000000E-01   4.000000E-01   4.000000E-01   4.000000E-01   4.000000E-01   4.000000E-01   4.000000E-01   4.000000E-01   4.000000E-01   4.000000E-01   4.000000E-01   4.000000E-01   4.000000E-01   4.000000E-01   4.000000E-01   4.000000E-01   4.000000E-01   4.000000E-01   4.000000E-01   4.000000E-01   4.000000E-01   4.000000E-01   4.000000E-01   4.000000E-01   4.000000E-01   4.000000E-01   4.000000E-01   4.000000E-01   4.000000E-01   4.000000E-01   4.000000E-01   4.000000E-01   4.000000E-01   4.000000E-01   4.000000E-01   4.000000E-01   4.000000E-01   4.000000E-01   4.000000E-01   4.000000E-01   4.000000E-01   4.000000E-01   4.000000E-01   4.000000E-01   4.000000E-01   4.000000E-01   4.000000E-01   4.000000E-01   4.000000E-01   4.000000E-01   4.000000E-01   4.000000E-01   4.000000E-01   4.000000E-01   4.000000E-01   4.000000E-01   4.000000E-01   4.000000E-01   4.000000E-01   4.000000E-01   4.000000E-01   4.000000E-01   4.000000E-01   4.000000E-01   4.000000E-01   4.000000E-01   4.000000E-01   4.000000E-01   4.000000E-01   4.000000E-01   4.000000E-01   4.000000E-01   4.000000E-01   4.000000E-01   4.000000E-01   4.000000E-01   4.000000E-01   4.000000E-01   4.000000E-01   4.000000E-01   4.000000E-01   4.000000E-01   4.000000E-01   4.000000E-01   4.000000E-01   4.000000E-01   4.000000E-01   4.000000E-01   4.000000E-01   4.000000E-01   4.000000E-01   4.000000E-01   4.000000E-01   4.000000E-01   4.000000E-01   4.000000E-01   4.000000E-01   4.000000E-01   4.000000E-01   4.000000E-01   4.000000E-01   4.000000E-01   4.000000E-01   4.000000E-01   4.000000E-01   4.000000E-01   4.000000E-01   4.000000E-01   4.000000E-01   4.000000E-01   4.000000E-01   4.000000E-01   4.000000E-01   4.000000E-01   4.000000E-01   4.000000E-01   4.000000E-01   4.000000E-01   4.000000E-01   4.000000E-01   4.000000E-01   4.000000E-01   4.000000E-01   4.000000E-01   4.000000E-01   4.000000E-01   4.000000E-01   4.000000E-01   4.000000E-01   4.000000E-01   4.000000E-01   4.000000E-01   4.000000E-01   4.000000E-01   4.000000E-01   4.000000E-01   4.000000E-01   4.000000E-01   4.000000E-01   4.000000E-01   4.000000E-01   4.000000E-01   4.000000E-01   4.000000E-01   4.000000E-01   4.000000E-01   4.000000E-01   4.000000E-01   4.000000E-01   4.000000E-01   4.000000E-01   4.000000E-01   4.000000E-01   4.000000E-01   4.000000E-01   4.000000E-01   4.000000E-01   4.000000E-01   4.000000E-01   4.000000E-01   4.000000E-01   4.000000E-01   4.000000E-01   4.000000E-01   4.000000E-01   4.000000E-01   4.000000E-01   4.000000E-01   4.000000E-01   4.000000E-01   4.000000E-01   4.000000E-01   4.000000E-01   4.000000E-01   4.000000E-01   4.000000E-01   4.000000E-01   4.000000E-01   4.000000E-01   4.000000E-01   4.000000E-01   4.000000E-01   4.000000E-01   4.000000E-01   4.000000E-01   4.000000E-01   4.000000E-01   4.000000E-01   4.000000E-01   4.000000E-01   4.000000E-01   4.000000E-01   4.000000E-01   4.000000E-01   4.000000E-01   4.000000E-01   4.000000E-01   4.000000E-01   4.000000E-01   4.000000E-01   4.000000E-01   4.000000E-01   4.000000E-01   4.000000E-01   4.000000E-01   4.000000E-01   4.000000E-01   4.000000E-01   4.000000E-01   4.000000E-01   4.000000E-01   4.000000E-01   4.000000E-01   4.000000E-01   4.000000E-01   4.000000E-01   4.000000E-01   4.000000E-01   4.000000E-01   4.000000E-01   4.000000E-01   4.000000E-01   4.000000E-01   4.000000E-01   4.000000E-01   4.000000E-01   4.000000E-01   4.000000E-01   4.000000E-01   4.000000E-01   4.000000E-01   4.000000E-01   4.000000E-01   4.000000E-01   4.000000E-01   4.000000E-01   4.000000E-01   4.000000E-01   4.000000E-01   4.000000E-01   4.000000E-01   4.000000E-01   4.000000E-01   4.000000E-01   4.000000E-01   4.000000E-01   4.000000E-01   4.000000E-01   4.000000E-01   4.000000E-01   4.000000E-01   4.000000E-01   4.000000E-01   4.000000E-01   4.000000E-01   4.000000E-01   4.000000E-01   4.000000E-01   4.000000E-01   4.000000E-01   4.000000E-01   4.000000E-01   4.000000E-01   4.000000E-01   4.000000E-01   4.000000E-01   4.000000E-01   4.000000E-01   4.000000E-01   4.000000E-01   4.000000E-01   4.000000E-01   4.000000E-01   4.000000E-01   4.000000E-01   4.000000E-01   4.000000E-01   4.000000E-01   4.000000E-01   4.000000E-01   4.000000E-01   4.000000E-01   4.000000E-01   4.000000E-01   4.000000E-01   4.000000E-01   4.000000E-01   4.000000E-01   4.000000E-01   4.000000E-01   4.000000E-01   4.000000E-01   4.000000E-01   4.000000E-01   4.000000E-01   4.000000E-01   4.000000E-01   4.000000E-01   4.000000E-01   4.000000E-01   4.000000E-01   4.000000E-01   4.000000E-01   4.000000E-01   4.000000E-01   4.000000E-01   4.000000E-01   4.000000E-01   4.000000E-01   4.000000E-01   4.000000E-01   4.000000E-01   4.000000E-01   4.000000E-01   4.000000E-01   4.000000E-01   4.000000E-01   4.000000E-01   4.000000E-01   4.000000E-01   4.000000E-01   4.000000E-01   4.000000E-01   4.000000E-01   4.000000E-01   4.000000E-01   4.000000E-01   4.000000E-01   4.000000E-01   4.000000E-01   4.000000E-01   4.000000E-01   4.000000E-01   4.000000E-01   4.000000E-01   4.000000E-01   4.000000E-01   4.000000E-01   4.000000E-01   4.000000E-01   4.000000E-01   4.000000E-01   4.000000E-01   4.000000E-01   4.000000E-01   4.000000E-01   4.000000E-01   4.000000E-01   4.000000E-01   4.000000E-01   4.000000E-01   4.000000E-01   4.000000E-01   4.000000E-01   4.000000E-01   4.000000E-01   4.000000E-01   4.000000E-01   4.000000E-01   4.000000E-01   4.000000E-01   4.000000E-01   4.000000E-01   4.000000E-01   4.000000E-01   4.000000E-01   4.000000E-01   4.000000E-01   4.000000E-01   4.000000E-01   4.000000E-01   4.000000E-01   4.000000E-01   4.000000E-01   4.000000E-01   4.000000E-01   4.000000E-01   4.000000E-01   4.000000E-01   4.000000E-01   4.000000E-01   4.000000E-01   4.000000E-01   4.000000E-01   4.000000E-01   4.000000E-01   4.000000E-01   4.000000E-01   4.000000E-01   4.000000E-01   4.000000E-01   4.000000E-01   4.000000E-01   4.000000E-01   4.000000E-01   4.000000E-01   4.000000E-01   4.000000E-01   4.000000E-01   4.000000E-01   4.000000E-01   4.000000E-01   4.000000E-01   4.000000E-01   4.000000E-01   4.000000E-01   4.000000E-01   4.000000E-01   4.000000E-01   4.000000E-01   4.000000E-01   4.000000E-01   4.000000E-01   4.000000E-01   4.000000E-01   4.000000E-01   4.000000E-01   4.000000E-01   4.000000E-01   4.000000E-01   4.000000E-01   4.000000E-01   4.000000E-01   4.000000E-01   4.000000E-01   4.000000E-01   4.000000E-01   4.000000E-01   4.000000E-01   4.000000E-01   4.000000E-01   4.000000E-01   4.000000E-01   4.000000E-01   4.000000E-01   4.000000E-01   4.000000E-01   4.000000E-01   4.000000E-01   4.000000E-01   4.000000E-01   4.000000E-01   4.000000E-01   4.000000E-01   4.000000E-01   4.000000E-01   4.000000E-01   4.000000E-01   4.000000E-01   4.000000E-01   4.000000E-01   4.000000E-01   4.000000E-01   4.000000E-01   4.000000E-01   4.000000E-01   4.000000E-01   4.000000E-01   4.000000E-01   4.000000E-01   4.000000E-01   4.000000E-01   4.000000E-01   4.000000E-01   4.000000E-01   4.000000E-01   4.000000E-01   4.000000E-01   4.000000E-01   4.000000E-01   4.000000E-01   4.000000E-01   4.000000E-01   4.000000E-01   4.000000E-01   4.000000E-01   4.000000E-01   4.000000E-01   4.000000E-01   4.000000E-01   4.000000E-01   4.000000E-01   4.000000E-01   4.000000E-01   4.000000E-01   4.000000E-01   4.000000E-01   4.000000E-01   4.000000E-01   4.000000E-01   4.000000E-01   4.000000E-01   4.000000E-01   4.000000E-01   4.000000E-01   4.000000E-01   4.000000E-01   4.000000E-01   4.000000E-01   4.000000E-01   4.000000E-01   4.000000E-01   4.000000E-01   4.000000E-01   4.000000E-01   4.000000E-01   4.000000E-01   4.000000E-01   4.000000E-01   4.000000E-01   4.000000E-01   4.000000E-01   4.000000E-01   4.000000E-01   4.000000E-01   4.000000E-01   4.000000E-01   4.000000E-01   4.000000E-01   4.000000E-01   4.000000E-01   4.000000E-01   4.000000E-01   4.000000E-01   4.000000E-01   4.000000E-01   4.000000E-01   4.000000E-01   4.000000E-01   4.000000E-01   4.000000E-01   4.000000E-01   4.000000E-01   4.000000E-01   4.000000E-01   4.000000E-01   4.000000E-01   4.000000E-01   4.000000E-01   4.000000E-01   4.000000E-01   4.000000E-01   4.000000E-01   4.000000E-01   4.000000E-01   4.000000E-01   4.000000E-01   4.000000E-01   4.000000E-01   4.000000E-01   4.000000E-01   4.000000E-01   4.000000E-01   4.000000E-01   4.000000E-01   4.000000E-01   4.000000E-01   4.000000E-01   4.000000E-01   4.000000E-01   4.000000E-01   4.000000E-01   4.000000E-01   4.000000E-01   4.000000E-01   4.000000E-01   4.000000E-01   4.000000E-01   4.000000E-01   4.000000E-01   4.000000E-01   4.000000E-01   4.000000E-01   4.000000E-01   4.000000E-01   4.000000E-01   4.000000E-01   4.000000E-01   4.000000E-01   4.000000E-01   4.000000E-01   4.000000E-01   4.000000E-01   4.000000E-01   4.000000E-01   4.000000E-01   4.000000E-01   4.000000E-01   4.000000E-01   4.000000E-01   4.000000E-01   4.000000E-01   4.000000E-01   4.000000E-01   4.000000E-01   4.000000E-01   4.000000E-01   4.000000E-01   4.000000E-01   4.000000E-01   4.000000E-01   4.000000E-01   4.000000E-01   4.000000E-01   4.000000E-01   4.000000E-01   4.000000E-01   4.000000E-01   4.000000E-01   4.000000E-01   4.000000E-01   4.000000E-01   4.000000E-01   4.000000E-01   4.000000E-01   4.000000E-01   4.000000E-01   4.000000E-01   4.000000E-01   4.000000E-01   4.000000E-01   4.000000E-01   4.000000E-01   4.000000E-01   4.000000E-01   4.000000E-01   4.000000E-01   4.000000E-01   4.000000E-01   4.000000E-01   4.000000E-01   4.000000E-01   4.000000E-01   4.000000E-01   4.000000E-01   4.000000E-01   4.000000E-01   4.000000E-01   4.000000E-01   4.000000E-01   4.000000E-01   4.000000E-01   4.000000E-01   4.000000E-01   4.000000E-01   4.000000E-01   4.000000E-01   4.000000E-01   4.000000E-01   4.000000E-01   4.000000E-01   4.000000E-01   4.000000E-01   4.000000E-01   4.000000E-01   4.000000E-01   4.000000E-01   4.000000E-01   4.000000E-01   4.000000E-01   4.000000E-01   4.000000E-01   4.000000E-01   4.000000E-01   4.000000E-01   4.000000E-01   4.000000E-01   4.000000E-01   4.000000E-01   4.000000E-01   4.000000E-01   4.000000E-01   4.000000E-01   4.000000E-01   4.000000E-01   4.000000E-01   4.000000E-01   4.000000E-01   4.000000E-01   4.000000E-01   4.000000E-01   4.000000E-01   4.000000E-01   4.000000E-01   4.000000E-01   4.000000E-01   4.000000E-01   4.000000E-01   4.000000E-01   4.000000E-01   4.000000E-01   4.000000E-01   4.000000E-01   4.000000E-01   4.000000E-01   4.000000E-01   4.000000E-01   4.000000E-01   4.000000E-01   4.000000E-01   4.000000E-01   4.000000E-01   4.000000E-01   4.000000E-01   4.000000E-01   4.000000E-01   4.000000E-01   4.000000E-01   4.000000E-01   4.000000E-01   4.000000E-01   4.000000E-01   4.000000E-01   4.000000E-01   4.000000E-01   4.000000E-01   4.000000E-01   4.000000E-01   4.000000E-01   4.000000E-01   4.000000E-01   4.000000E-01   4.000000E-01   4.000000E-01   4.000000E-01   4.000000E-01   4.000000E-01   4.000000E-01   4.000000E-01   4.000000E-01   4.000000E-01   4.000000E-01   4.000000E-01   4.000000E-01   4.000000E-01   4.000000E-01   4.000000E-01   4.000000E-01   4.000000E-01   4.000000E-01   4.000000E-01   4.000000E-01   4.000000E-01   4.000000E-01   4.000000E-01   4.000000E-01   4.000000E-01   4.000000E-01   4.000000E-01   4.000000E-01   4.000000E-01   4.000000E-01   4.000000E-01   4.000000E-01   4.000000E-01   4.000000E-01   4.000000E-01   4.000000E-01   4.000000E-01   4.000000E-01   4.000000E-01   4.000000E-01   4.000000E-01   4.000000E-01   4.000000E-01   4.000000E-01   4.000000E-01   4.000000E-01   4.000000E-01   4.000000E-01   4.000000E-01   4.000000E-01   4.000000E-01   4.000000E-01   4.000000E-01   4.000000E-01   4.000000E-01   4.000000E-01   4.000000E-01   4.000000E-01   4.000000E-01   4.000000E-01   4.000000E-01   4.000000E-01   4.000000E-01   4.000000E-01   4.000000E-01   4.000000E-01   4.000000E-01   4.000000E-01   4.000000E-01   4.000000E-01   4.000000E-01   4.000000E-01   4.000000E-01   4.000000E-01   4.000000E-01   4.000000E-01   4.000000E-01   4.000000E-01   4.000000E-01   4.000000E-01   4.000000E-01   4.000000E-01   4.000000E-01   4.000000E-01   4.000000E-01   4.000000E-01   4.000000E-01   4.000000E-01   4.000000E-01   4.000000E-01   4.000000E-01   4.000000E-01   4.000000E-01   4.000000E-01   4.000000E-01   4.000000E-01   4.000000E-01   4.000000E-01   4.000000E-01   4.000000E-01   4.000000E-01   4.000000E-01   4.000000E-01   4.000000E-01   4.000000E-01   4.000000E-01   4.000000E-01   4.000000E-01   4.000000E-01   4.000000E-01   4.000000E-01   4.000000E-01   4.000000E-01   4.000000E-01   4.000000E-01   4.000000E-01   4.000000E-01   4.000000E-01   4.000000E-01   4.000000E-01   4.000000E-01   4.000000E-01   4.000000E-01   4.000000E-01   4.000000E-01   4.000000E-01   4.000000E-01   4.000000E-01   4.000000E-01   4.000000E-01   4.000000E-01   4.000000E-01   4.000000E-01   4.000000E-01   4.000000E-01   4.000000E-01   4.000000E-01   4.000000E-01   4.000000E-01   4.000000E-01   4.000000E-01   4.000000E-01   4.000000E-01   4.000000E-01   4.000000E-01   4.000000E-01   4.000000E-01   4.000000E-01   4.000000E-01   4.000000E-01   4.000000E-01   4.000000E-01   4.000000E-01   4.000000E-01   4.000000E-01   4.000000E-01   4.000000E-01   4.000000E-01   4.000000E-01   4.000000E-01   4.000000E-01   4.000000E-01   4.000000E-01   4.000000E-01   4.000000E-01   4.000000E-01   4.000000E-01   4.000000E-01   4.000000E-01   4.000000E-01   4.000000E-01   4.000000E-01   4.000000E-01   4.000000E-01   4.000000E-01   4.000000E-01   4.000000E-01   4.000000E-01   4.000000E-01   4.000000E-01   4.000000E-01   4.000000E-01   4.000000E-01   4.000000E-01   4.000000E-01   4.000000E-01   4.000000E-01   4.000000E-01   4.000000E-01   4.000000E-01   4.000000E-01   4.000000E-01   4.000000E-01   4.000000E-01   4.000000E-01   4.000000E-01   4.000000E-01   4.000000E-01   4.000000E-01   4.000000E-01   4.000000E-01   4.000000E-01   4.000000E-01   4.000000E-01   4.000000E-01   4.000000E-01   4.000000E-01   4.000000E-01   4.000000E-01   4.000000E-01   4.000000E-01   4.000000E-01   4.000000E-01   4.000000E-01   4.000000E-01   4.000000E-01   4.000000E-01   4.000000E-01   4.000000E-01   4.000000E-01   4.000000E-01   4.000000E-01   4.000000E-01   4.000000E-01   4.000000E-01   4.000000E-01   4.000000E-01   4.000000E-01   4.000000E-01   4.000000E-01   4.000000E-01   4.000000E-01   4.000000E-01   4.000000E-01   4.000000E-01   4.000000E-01   4.000000E-01   4.000000E-01   4.000000E-01   4.000000E-01   4.000000E-01   4.000000E-01   4.000000E-01   4.000000E-01   4.000000E-01   4.000000E-01   4.000000E-01   4.000000E-01   4.000000E-01   4.000000E-01   4.000000E-01   4.000000E-01   4.000000E-01   4.000000E-01   4.000000E-01   4.000000E-01   4.000000E-01   4.000000E-01   4.000000E-01   4.000000E-01   4.000000E-01   4.000000E-01   4.000000E-01   4.000000E-01   4.000000E-01   4.000000E-01   4.000000E-01   4.000000E-01   4.000000E-01   4.000000E-01   4.000000E-01   4.000000E-01   4.000000E-01   4.000000E-01   4.000000E-01   4.000000E-01   4.000000E-01   4.000000E-01   4.000000E-01   4.000000E-01   4.000000E-01   4.000000E-01   4.000000E-01   4.000000E-01   4.000000E-01   4.000000E-01   4.000000E-01   4.000000E-01   4.000000E-01   4.000000E-01   4.000000E-01   4.000000E-01   4.000000E-01   4.000000E-01   4.000000E-01   4.000000E-01   4.000000E-01   4.000000E-01   4.000000E-01   4.000000E-01   4.000000E-01   4.000000E-01   4.000000E-01   