<?xml version="1.0"?>
<!-- Time =  2.9998362602810152E-01s -->
<VTKFile type="PolyData" version="0.1" byte_order="LittleEndian">
<PolyData>
<Piece NumberOfPoints="0000002400" NumberOfVerts="0" NumberOfLines="0" NumberOfStrips="0" NumberOfPolys="0">
<Points>
<DataArray type="Float32" Name="Position" NumberOfComponents="3" format="ascii">
  2.145725E-01   1.993023E-01   2.012117E-01   6.992903E-01   2.002655E-01   2.012945E-01   1.124851E+00   1.989976E-01   2.013004E-01   1.536604E+00   2.094417E-01   2.179364E-01   1.958563E+00   2.062082E-01   2.079809E-01   2.794043E+00   2.017602E-01   2.032973E-01   3.193869E+00   1.994323E-01   2.066620E-01   3.593509E+00   1.993706E-01   2.146423E-01   4.001664E+00   2.076911E-01   2.134856E-01   4.424139E+00   1.999617E-01   2.001488E-01   4.828165E+00   1.989353E-01   2.005055E-01   5.229350E+00   2.221698E-01   2.004110E-01   5.641774E+00   2.092361E-01   2.013820E-01   6.460151E+00   2.081247E-01   2.040139E-01   7.211457E+00   8.789443E-01   2.193157E-01   6.788392E+00   1.269203E+00   3.322064E-01   6.734867E+00   6.631002E-01   2.291884E-01   7.092884E+00   8.711431E+00   2.099765E+00   5.264040E+00   5.864884E+00   2.214740E+00   8.604627E+00   1.090732E+00   1.219459E+00   8.573795E+00   8.678851E-01   2.985781E-01   7.575711E+00   7.048141E-01   2.046793E-01   8.604194E+00   2.031810E-01   2.019704E-01   9.477036E+00   1.996974E-01   2.033912E-01   9.881258E+00   1.998236E-01   1.998270E-01   1.067939E+01   1.997439E-01   1.995622E-01   1.114716E+01   1.997430E-01   2.134873E-01   1.164653E+01   1.996985E-01   2.609256E-01   1.205306E+01   1.998078E-01   2.525875E-01   1.245516E+01   1.997165E-01   2.317453E-01   1.285837E+01   1.996641E-01   2.778229E-01   1.328386E+01   1.996612E-01   2.361167E-01   1.372149E+01   1.997308E-01   2.172135E-01   1.413431E+01   1.998480E-01   2.424636E-01   1.453417E+01   1.996786E-01   2.351139E-01   2.014869E-01   5.985464E-01   2.063426E-01   5.270221E-01   3.944316E-01   5.056431E-01   9.601504E-01   5.291536E-01   3.669811E-01   1.329385E+00   5.512888E-01   1.997728E-01   1.718887E+00   5.479281E-01   3.386098E-01   2.393376E+00   1.993911E-01   2.089574E-01   2.975045E+00   5.077909E-01   3.964309E-01   3.376328E+00   5.542578E-01   1.994976E-01   3.801060E+00   5.566662E-01   2.081186E-01   4.212814E+00   5.593762E-01   2.511567E-01   4.665826E+00   5.510422E-01   3.551266E-01   5.050231E+00   6.004556E-01   2.036778E-01   5.470797E+00   5.818395E-01   2.011649E-01   6.042900E+00   2.155406E-01   2.037640E-01   7.115961E+00   4.790267E-01   2.078723E-01   7.007492E+00   7.878458E-01   5.923361E-01   6.291247E+00   5.885723E-01   2.158528E-01   6.191761E+00   1.718051E+00   1.802611E+00   6.619073E+00   1.767342E+00   4.159936E-01   7.947188E+00   1.257969E+00   6.203687E-01   7.556581E+00   1.185753E+00   2.974645E-01   7.892539E+00   2.450581E-01   2.141914E-01   9.017559E+00   2.359025E-01   2.186400E-01   9.678556E+00   5.452174E-01   2.185390E-01   1.028014E+01   2.331700E-01   2.003583E-01   1.091335E+01   5.240961E-01   2.002602E-01   1.140042E+01   5.088589E-01   1.998772E-01   1.184851E+01   5.394725E-01   1.999170E-01   1.225201E+01   5.427021E-01   1.999497E-01   1.266310E+01   5.398518E-01   1.999645E-01   1.306553E+01   5.327421E-01   1.999736E-01   1.350141E+01   5.331778E-01   1.997908E-01   1.392962E+01   5.407674E-01   1.999433E-01   1.433368E+01   5.438867E-01   1.998418E-01   1.480015E+01   4.961154E-01   2.001229E-01   3.750169E-01   9.725444E-01   2.247673E-01   6.119165E-01   6.442329E-01   2.033320E-01   1.016909E+00   9.268601E-01   2.949009E-01   1.573191E+00   9.342796E-01   2.154889E-01   1.969517E+00   8.753043E-01   2.176294E-01   2.188090E+00   5.408152E-01   2.027649E-01   2.880873E+00   8.893569E-01   2.249803E-01   3.246761E+00   7.633536E-01   5.546529E-01   3.558792E+00   8.826129E-01   3.346327E-01   4.177038E+00   1.128674E+00   5.179115E-01   4.441291E+00   8.908867E-01   2.151097E-01   5.336668E+00   9.583363E-01   7.549254E-01   5.611156E+00   5.652250E-01   5.795063E-01   6.397646E+00   5.635228E-01   6.330928E-01   6.715972E+00   3.417197E-01   4.996609E-01   6.580279E+00   7.355158E-01   9.513594E-01   6.011676E+00   5.373897E-01   4.991944E-01   6.337049E+00   9.233886E-01   4.395771E-01   5.283663E+00   4.159069E+00   4.767041E-01   8.122445E+00   6.117020E-01   8.167003E-01   9.334544E+00   9.035869E+00   1.397125E+00   7.965812E+00   6.909672E-01   4.346091E-01   8.253631E+00   4.792009E-01   2.130186E-01   9.207412E+00   6.092422E-01   2.123148E-01   1.009527E+01   5.960178E-01   2.035038E-01   1.049692E+01   6.186877E-01   1.996556E-01   1.116790E+01   8.340613E-01   2.091573E-01   1.160184E+01   8.531592E-01   2.277491E-01   1.205001E+01   8.878641E-01   1.999941E-01   1.246112E+01   8.850799E-01   1.998727E-01   1.287042E+01   8.818603E-01   2.000769E-01   1.328310E+01   8.683656E-01   1.999786E-01   1.370951E+01   8.746214E-01   2.060377E-01   1.412869E+01   8.875222E-01   2.090131E-01   1.458612E+01   7.136943E-01   4.595066E-01   2.021195E-01   2.012181E-01   6.372717E-01   8.731517E-01   2.004914E-01   5.837057E-01   1.310377E+00   1.992083E-01   5.595520E-01   1.776806E+00   1.984334E-01   6.042482E-01   2.180226E+00   1.999357E-01   5.512996E-01   2.593890E+00   2.018184E-01   5.553291E-01   3.378625E+00   2.002198E-01   5.637528E-01   3.784842E+00   1.999991E-01   6.415186E-01   4.188233E+00   1.999045E-01   6.588102E-01   4.586948E+00   1.998469E-01   5.667741E-01   4.991679E+00   1.999959E-01   5.719424E-01   5.821126E+00   1.971713E-01   5.881411E-01   6.242174E+00   2.017179E-01   5.534523E-01   7.129758E+00   1.043389E+00   9.092257E-01   7.161043E+00   2.367944E+00   7.175378E-01   6.314003E+00   6.736129E+00   9.049288E-01   5.839521E+00   1.273059E+00   5.751933E-01   6.535522E+00   1.946342E+01   1.080864E+00   7.718105E+00   1.998920E+01   1.631256E+00   6.755699E+00   1.443234E+01   2.513483E+00   7.559473E+00   1.101409E+01   3.730411E+00   7.431217E+00   3.871680E+00   1.511326E+00   8.323576E+00   2.009594E-01   4.908568E-01   9.257732E+00   1.996674E-01   5.391304E-01   9.651792E+00   2.001886E-01   7.095863E-01   1.022796E+01   1.994938E-01   6.753662E-01   1.090007E+01   1.994844E-01   5.331817E-01   1.140810E+01   1.997917E-01   5.820529E-01   1.181324E+01   1.995505E-01   6.368113E-01   1.223947E+01   1.996568E-01   6.942217E-01   1.264798E+01   1.996402E-01   7.187614E-01   1.308163E+01   1.997218E-01   7.007989E-01   1.351599E+01   1.996646E-01   6.966542E-01   1.396016E+01   1.998388E-01   6.146473E-01   1.446348E+01   1.999302E-01   8.031318E-01   2.019698E-01   6.391196E-01   6.206669E-01   4.640152E-01   4.714158E-01   8.959816E-01   1.087222E+00   4.519905E-01   8.169143E-01   1.527947E+00   5.471671E-01   7.192125E-01   1.987016E+00   5.387164E-01   6.344257E-01   2.435412E+00   5.668413E-01   5.165517E-01   2.984084E+00   2.009319E-01   6.577054E-01   3.586319E+00   5.436442E-01   5.474992E-01   3.994756E+00   5.471568E-01   6.014518E-01   4.398224E+00   5.417194E-01   6.526668E-01   4.786191E+00   3.836448E-01   8.627249E-01   5.391867E+00   2.087011E-01   5.706182E-01   6.129100E+00   2.002380E-01   9.389334E-01   6.935432E+00   4.405032E-01   8.810896E-01   6.318012E+00   5.238437E+00   1.249092E+00   6.056914E+00   2.051574E+00   5.284548E-01   2.808180E+00   1.191606E+00   4.745871E-01   3.041062E+00   1.509089E+00   3.786909E-01   9.807662E+00   1.079374E+01   1.516432E+00   8.172736E+00   1.272820E+00   2.352616E-01   9.820995E+00   2.731185E+00   1.468259E+00   6.844604E+00   2.054353E+00   1.020648E+00   8.791179E+00   2.202271E-01   5.540787E-01   9.377050E+00   5.805406E-01   5.762341E-01   9.932750E+00   4.246880E-01   5.268474E-01   1.054488E+01   3.902464E-01   5.239742E-01   1.115757E+01   5.048392E-01   5.176145E-01   1.162134E+01   5.343940E-01   5.321699E-01   1.204181E+01   5.155838E-01   5.491984E-01   1.245352E+01   5.016868E-01   5.429866E-01   1.285797E+01   4.941705E-01   5.483357E-01   1.329731E+01   4.964645E-01   5.416226E-01   1.371581E+01   5.066930E-01   5.362442E-01   1.425817E+01   4.649749E-01   5.848405E-01   1.479523E+01   2.005153E-01   5.428833E-01   2.190142E-01   1.070945E+00   6.375834E-01   6.541430E-01   7.501512E-01   6.732857E-01   1.211614E+00   7.823814E-01   6.285357E-01   1.867611E+00   1.265225E+00   4.331170E-01   2.498660E+00   8.931320E-01   7.696474E-01   2.415840E+00   8.826321E-01   2.155577E-01   2.894425E+00   5.679498E-01   7.919891E-01   3.297239E+00   5.044123E-01   8.568308E-01   3.715964E+00   8.754585E-01   7.374308E-01   4.185404E+00   8.447594E-01   8.043121E-01   4.884391E+00   7.623547E-01   9.481618E-01   5.248042E+00   5.425048E-01   8.380445E-01   6.160783E+00   8.185591E-01   8.952820E-01   6.522909E+00   2.081138E-01   8.558795E-01   6.807845E+00   1.313794E+00   9.161795E-01   4.621280E+00   8.756236E-01   6.519462E-01   2.542482E+00   8.956007E-01   1.881944E+00   4.822205E+00   1.237044E+00   3.906405E-01   9.452355E+00   9.356650E-01   3.769949E-01   8.071341E+00   2.145828E-01   8.955528E-01   1.021813E+01   5.943490E+00   1.582683E+00   8.331431E+00   8.259746E-01   1.448244E+00   7.757241E+00   3.659568E-01   6.686837E-01   8.917575E+00   6.091729E-01   5.374658E-01   9.709898E+00   6.242708E-01   7.955186E-01   1.025992E+01   6.621626E-01   5.943523E-01   1.080563E+01   6.928704E-01   5.492930E-01   1.136794E+01   8.430650E-01   5.563272E-01   1.184670E+01   8.646219E-01   5.436784E-01   1.225659E+01   8.526909E-01   5.419491E-01   1.266220E+01   8.428910E-01   5.430249E-01   1.307560E+01   8.295000E-01   5.396597E-01   1.349840E+01   8.422077E-01   5.448455E-01   1.400799E+01   7.770757E-01   5.763270E-01   1.471366E+01   5.110834E-01   7.819680E-01   2.031763E-01   2.050556E-01   1.039029E+00   7.720880E-01   2.066177E-01   9.772443E-01   1.483413E+00   2.061522E-01   9.260440E-01   2.025153E+00   1.993072E-01   9.319859E-01   2.731061E+00   2.015021E-01  
[...]
<PointData Scalars="Diameter" Vectors="Velocity">
<DataArray type="Float32" Name="Diameter" format="ascii">
  4.000000E-01   4.000000E-01   4.000000E-01   4.000000E-01   4.000000E-01   4.000000E-01   4.000000E-01   4.000000E-01   4.000000E-01   4.000000E-01   4.000000E-01   4.000000E-01   4.000000E-01   4.000000E-01   4.000000E-01   4.000000E-01   4.000000E-01   4.000000E-01   4.000000E-01   4.000000E-01   4.000000E-01   4.000000E-01   4.000000E-01   4.000000E-01   4.000000E-01   4.000000E-01   4.000000E-01   4.000000E-01   4.000000E-01   4.000000E-01   4.000000E-01   4.000000E-01   4.000000E-01   4.000000E-01   4.000000E-01   4.000000E-01   4.000000E-01   4.000000E-01   4.000000E-01   4.000000E-01   4.000000E-01   4.000000E-01   4.000000E-01   4.000000E-01   4.000000E-01   4.000000E-01   4.000000E-01   4.000000E-01   4.000000E-01   4.000000E-01   4.000000E-01   4.000000E-01   4.000000E-01   4.000000E-01   4.000000E-01   4.000000E-01   4.000000E-01   4.000000E-01   4.000000E-01   4.000000E-01   4.000000E-01   4.000000E-01   4.000000E-01   4.000000E-01   4.000000E-01   4.000000E-01   4.000000E-01   4.000000E-01   4.000000E-01   4.000000E-01   4.000000E-01   4.000000E-01   4.000000E-01   4.000000E-01   4.000000E-01   4.000000E-01   4.000000E-01   4.000000E-01   4.000000E-01   4.000000E-01   4.000000E-01   4.000000E-01   4.000000E-01   4.000000E-01   4.000000E-01   4.000000E-01   4.000000E-01   4.000000E-01   4.000000E-01   4.000000E-01   4.000000E-01   4.000000E-01   4.000000E-01   4.000000E-01   4.000000E-01   4.000000E-01   4.000000E-01   4.000000E-01   4.000000E-01   4.000000E-01   4.000000E-01   4.000000E-01   4.000000E-01   4.000000E-01   4.000000E-01   4.000000E-01   4.000000E-01   4.000000E-01   4.000000E-01   4.000000E-01   4.000000E-01   4.000000E-01   4.000000E-01   4.000000E-01   4.000000E-01   4.000000E-01   4.000000E-01   4.000000E-01   4.000000E-01   4.000000E-01   4.000000E-01   4.000000E-01   4.000000E-01   4.000000E-01   4.000000E-01   4.000000E-01   4.000000E-01   4.000000E-01   4.000000E-01   4.000000E-01   4.000000E-01   4.000000E-01   4.000000E-01   4.000000E-01   4.000000E-01   4.000000E-01   4.000000E-01   4.000000E-01   4.000000E-01   4.000000E-01   4.000000E-01   4.000000E-01   4.000000E-01   4.000000E-01   4.000000E-01   4.000000E-01   4.000000E-01   4.000000E-01   4.000000E-01   4.000000E-01   4.000000E-01   4.000000E-01   4.000000E-01   4.000000E-01   4.000000E-01   4.000000E-01   4.000000E-01   4.000000E-01   4.000000E-01   4.000000E-01   4.000000E-01   4.000000E-01   4.000000E-01   4.000000E-01   4.000000E-01   4.000000E-01   4.000000E-01   4.000000E-01   4.000000E-01   4.000000E-01   4.000000E-01   4.000000E-01   4.000000E-01   4.000000E-01   4.000000E-01   4.000000E-01   4.000000E-01   4.000000E-01   4.000000E-01   4.000000E-01   4.000000E-01   4.000000E-01   4.000000E-01   4.000000E-01   4.000000E-01   4.000000E-01   4.000000E-01   4.000000E-01   4.000000E-01   4.000000E-01   4.000000E-01   4.000000E-01   4.000000E-01   4.000000E-01   4.000000E-01   4.000000E-01   4.000000E-01   4.000000E-01   4.000000E-01   4.000000E-01   4.000000E-01   4.000000E-01   4.000000E-01   4.000000E-01   4.000000E-01   4.000000E-01   4.000000E-01   4.000000E-01   4.000000E-01   4.000000E-01   4.000000E-01   4.000000E-01   4.000000E-01   4.000000E-01   4.000000E-01   4.000000E-01   4.000000E-01   4.000000E-01   4.000000E-01   4.000000E-01   4.000000E-01   4.000000E-01   4.000000E-01   4.000000E-01   4.000000E-01   4.000000E-01   4.000000E-01   4.000000E-01   4.000000E-01   4.000000E-01   4.000000E-01   4.000000E-01   4.000000E-01   4.000000E-01   4.000000E-01   4.000000E-01   4.000000E-01   4.000000E-01   4.000000E-01   4.000000E-01   4.000000E-01   4.000000E-01   4.000000E-01   4.000000E-01   4.000000E-01   4.000000E-01   4.000000E-01   4.000000E-01   4.000000E-01   4.000000E-01   4.000000E-01   4.000000E-01   4.000000E-01   4.000000E-01   4.000000E-01   4.000000E-01   4.000000E-01   4.000000E-01   4.000000E-01   4.000000E-01   4.000000E-01   4.000000E-01   4.000000E-01   4.000000E-01   4.000000E-01   4.000000E-01   4.000000E-01   4.000000E-01   4.000000E-01   4.000000E-01   4.000000E-01   4.000000E-01   4.000000E-01   4.000000E-01   4.000000E-01   4.000000E-01   4.000000E-01   4.000000E-01   4.000000E-01   4.000000E-01   4.000000E-01   4.000000E-01   4.000000E-01   4.000000E-01   4.000000E-01   4.000000E-01   4.000000E-01   4.000000E-01   4.000000E-01   4.000000E-01   4.000000E-01   4.000000E-01   4.000000E-01   4.000000E-01   4.000000E-01   4.000000E-01   4.000000E-01   4.000000E-01   4.000000E-01   4.000000E-01   4.000000E-01   4.000000E-01   4.000000E-01   4.000000E-01   4.000000E-01   4.000000E-01   4.000000E-01   4.000000E-01   4.000000E-01   4.000000E-01   4.000000E-01   4.000000E-01   4.000000E-01   4.000000E-01   4.000000E-01   4.000000E-01   4.000000E-01   4.000000E-01   4.000000E-01   4.000000E-01   4.000000E-01   4.000000E-01   4.000000E-01   4.000000E-01   4.000000E-01   4.000000E-01   4.000000E-01   4.000000E-01   4.000000E-01   4.000000E-01   4.000000E-01   4.000000E-01   4.000000E-01   4.000000E-01   4.000000E-01   4.000000E-01   4.000000E-01   4.000000E-01   4.000000E-01   4.000000E-01   4.000000E-01   4.000000E-01   4.000000E-01   4.000000E-01   4.000000E-01   4.000000E-01   4.000000E-01   4.000000E-01   4.000000E-01   4.000000E-01   4.000000E-01   4.000000E-01   4.000000E-01   4.000000E-01   4.000000E-01   4.000000E-01   4.000000E-01   4.000000E-01   4.000000E-01   4.000000E-01   4.000000E-01   4.000000E-01   4.000000E-01   4.000000E-01   4.000000E-01   4.000000E-01   4.000000E-01   4.000000E-01   4.000000E-01   4.000000E-01   4.000000E-01   4.000000E-01   4.000000E-01   4.000000E-01   4.000000E-01   4.000000E-01   4.000000E-01   4.000000E-01   4.000000E-01   4.000000E-01   4.000000E-01   4.000000E-01   4.000000E-01   4.000000E-01   4.000000E-01   4.000000E-01   4.000000E-01   4.000000E-01   4.000000E-01   4.000000E-01   4.000000E-01   4.000000E-01   4.000000E-01   4.000000E-01   4.000000E-01   4.000000E-01   4.000000E-01   4.000000E-01   4.000000E-01   4.000000E-01   4.000000E-01   4.000000E-01   4.000000E-01   4.000000E-01   4.000000E-01   4.000000E-01   4.000000E-01   4.000000E-01   4.000000E-01   4.000000E-01   4.000000E-01   4.000000E-01   4.000000E-01   4.000000E-01   4.000000E-01   4.000000E-01   4.000000E-01   4.000000E-01   4.000000E-01   4.000000E-01   4.000000E-01   4.000000E-01   4.000000E-01   4.000000E-01   4.000000E-01   4.000000E-01   4.000000E-01   4.000000E-01   4.000000E-01   4.000000E-01   4.000000E-01   4.000000E-01   4.000000E-01   4.000000E-01   4.000000E-01   4.000000E-01   4.000000E-01   4.000000E-01   4.000000E-01   4.000000E-01   4.000000E-01   4.000000E-01   4.000000E-01   4.000000E-01   4.000000E-01   4.000000E-01   4.000000E-01   4.000000E-01   4.000000E-01   4.000000E-01   4.000000E-01   4.000000E-01   4.000000E-01   4.000000E-01   4.000000E-01   4.000000E-01   4.000000E-01   4.000000E-01   4.000000E-01   4.000000E-01   4.000000E-01   4.000000E-01   4.000000E-01   4.000000E-01   4.000000E-01   4.000000E-01   4.000000E-01   4.000000E-01   4.000000E-01   4.000000E-01   4.000000E-01   4.000000E-01   4.000000E-01   4.000000E-01   4.000000E-01   4.000000E-01   4.000000E-01   4.000000E-01   4.000000E-01   4.000000E-01   4.000000E-01   4.000000E-01   4.000000E-01   4.000000E-01   4.000000E-01   4.000000E-01   4.000000E-01   4.000000E-01   4.000000E-01   4.000000E-01   4.000000E-01   4.000000E-01   4.000000E-01   4.000000E-01   4.000000E-01   4.000000E-01   4.000000E-01   4.000000E-01   4.000000E-01   4.000000E-01   4.000000E-01   4.000000E-01   4.000000E-01   4.000000E-01   4.000000E-01   4.000000E-01   4.000000E-01   4.000000E-01   4.000000E-01   4.000000E-01   4.000000E-01   4.000000E-01   4.000000E-01   4.000000E-01   4.000000E-01   4.000000E-01   4.000000E-01   4.000000E-01   4.000000E-01   4.000000E-01   4.000000E-01   4.000000E-01   4.000000E-01   4.000000E-01   4.000000E-01   4.000000E-01   4.000000E-01   4.000000E-01   4.000000E-01   4.000000E-01   4.000000E-01   4.000000E-01   4.000000E-01   4.000000E-01   4.000000E-01   4.000000E-01   4.000000E-01   4.000000E-01   4.000000E-01   4.000000E-01   4.000000E-01   4.000000E-01   4.000000E-01   4.000000E-01   4.000000E-01   4.000000E-01   4.000000E-01   4.000000E-01   4.000000E-01   4.000000E-01   4.000000E-01   4.000000E-01   4.000000E-01   4.000000E-01   4.000000E-01   4.000000E-01   4.000000E-01   4.000000E-01   4.000000E-01   4.000000E-01   4.000000E-01   4.000000E-01   4.000000E-01   4.000000E-01   4.000000E-01   4.000000E-01   4.000000E-01   4.000000E-01   4.000000E-01   4.000000E-01   4.000000E-01   4.000000E-01   4.000000E-01   4.000000E-01   4.000000E-01   4.000000E-01   4.000000E-01   4.000000E-01   4.000000E-01   4.000000E-01   4.000000E-01   4.000000E-01   4.000000E-01   4.000000E-01   4.000000E-01   4.000000E-01   4.000000E-01   4.000000E-01   4.000000E-01   4.000000E-01   4.000000E-01   4.000000E-01   4.000000E-01   4.000000E-01   4.000000E-01   4.000000E-01   4.000000E-01   4.000000E-01   4.000000E-01   4.000000E-01   4.000000E-01   4.000000E-01   4.000000E-01   4.000000E-01   4.000000E-01   4.000000E-01   4.000000E-01   4.000000E-01   4.000000E-01   4.000000E-01   4.000000E-01   4.000000E-01   4.000000E-01   4.000000E-01   4.000000E-01   4.000000E-01   4.000000E-01   4.000000E-01   4.000000E-01   4.000000E-01   4.000000E-01   4.000000E-01   4.000000E-01   4.000000E-01   4.000000E-01   4.000000E-01   4.000000E-01   4.000000E-01   4.000000E-01   4.000000E-01   4.000000E-01   4.000000E-01   4.000000E-01   4.000000E-01   4.000000E-01   4.000000E-01   4.000000E-01   4.000000E-01   4.000000E-01   4.000000E-01   4.000000E-01   4.000000E-01   4.000000E-01   4.000000E-01   4.000000E-01   4.000000E-01   4.000000E-01   4.000000E-01   4.000000E-01   4.000000E-01   4.000000E-01   4.000000E-01   4.000000E-01   4.000000E-01   4.000000E-01   4.000000E-01   4.000000E-01   4.000000E-01   4.000000E-01   4.000000E-01   4.000000E-01   4.000000E-01   4.000000E-01   4.000000E-01   4.000000E-01   4.000000E-01   4.000000E-01   4.000000E-01   4.000000E-01   4.000000E-01   4.000000E-01   4.000000E-01   4.000000E-01   4.000000E-01   4.000000E-01   4.000000E-01   4.000000E-01   4.000000E-01   4.000000E-01   4.000000E-01   4.000000E-01   4.000000E-01   4.000000E-01   4.000000E-01   4.000000E-01   4.000000E-01   4.000000E-01   4.000000E-01   4.000000E-01   4.000000E-01   4.000000E-01   4.000000E-01   4.000000E-01   4.000000E-01   4.000000E-01   4.000000E-01   4.000000E-01   4.000000E-01   4.000000E-01   4.000000E-01   4.000000E-01   4.000000E-01   4.000000E-01   4.000000E-01   4.000000E-01   4.000000E-01   4.000000E-01   4.000000E-01   4.000000E-01   4.000000E-01   4.000000E-01   4.000000E-01   4.000000E-01   4.000000E-01   4.000000E-01   4.000000E-01   4.000000E-01   4.000000E-01   4.000000E-01   4.000000E-01   4.000000E-01   4.000000E-01   4.000000E-01   4.000000E-01   4.000000E-01   4.000000E-01   4.000000E-01   4.000000E-01   4.000000E-01   4.000000E-01   4.000000E-01   4.000000E-01   4.000000E-01   4.000000E-01   4.000000E-01   4.000000E-01   4.000000E-01   4.000000E-01   4.000000E-01   4.000000E-01   4.000000E-01   4.000000E-01   4.000000E-01   4.000000E-01   4.000000E-01   4.000000E-01   4.000000E-01   4.000000E-01   4.000000E-01   4.000000E-01   4.000000E-01   4.000000E-01   4.000000E-01   4.000000E-01   4.000000E-01   4.000000E-01   4.000000E-01   4.000000E-01   4.000000E-01   4.000000E-01   4.000000E-01   4.000000E-01   4.000000E-01   4.000000E-01   4.000000E-01   4.000000E-01   4.000000E-01   4.000000E-01   4.000000E-01   4.000000E-01   4.000000E-01   4.000000E-01   4.000000E-01   4.000000E-01   4.000000E-01   4.000000E-01   4.000000E-01   4.000000E-01   4.000000E-01   4.000000E-01   4.000000E-01   4.000000E-01   4.000000E-01   4.000000E-01   4.000000E-01   4.000000E-01   4.000000E-01   4.000000E-01   4.000000E-01   4.000000E-01   4.000000E-01   4.000000E-01   4.000000E-01   4.000000E-01   4.000000E-01   4.000000E-01   4.000000E-01   4.000000E-01   4.000000E-01   4.000000E-01   4.000000E-01   4.000000E-01   4.000000E-01   4.000000E-01   4.000000E-01   4.000000E-01   4.000000E-01   4.000000E-01   4.000000E-01   4.000000E-01   4.000000E-01   4.000000E-01   4.000000E-01   4.000000E-01   4.000000E-01   4.000000E-01   4.000000E-01   4.000000E-01   4.000000E-01   4.000000E-01   4.000000E-01   4.000000E-01   4.000000E-01   4.000000E-01   4.000000E-01   4.000000E-01   4.000000E-01   4.000000E-01   4.000000E-01   4.000000E-01   4.000000E-01   4.000000E-01   4.000000E-01   4.000000E-01   4.000000E-01   4.000000E-01   4.000000E-01   4.000000E-01   4.000000E-01   4.000000E-01   4.000000E-01   4.000000E-01   4.000000E-01   4.000000E-01   4.000000E-01   4.000000E-01   4.000000E-01   4.000000E-01   4.000000E-01   4.000000E-01   4.000000E-01   4.000000E-01   4.000000E-01   4.000000E-01   4.000000E-01   4.000000E-01   4.000000E-01   4.000000E-01   4.000000E-01   4.000000E-01   4.000000E-01   4.000000E-01   4.000000E-01   4.000000E-01   4.000000E-01   4.000000E-01   4.000000E-01   4.000000E-01   4.000000E-01   4.000000E-01   4.000000E-01   4.000000E-01   4.000000E-01   4.000000E-01   4.000000E-01   4.000000E-01   4.000000E-01   4.000000E-01   4.000000E-01   4.000000E-01   4.000000E-01   4.000000E-01   4.000000E-01   4.000000E-01   4.000000E-01   4.000000E-01   4.000000E-01   4.000000E-01   4.000000E-01   4.000000E-01   4.000000E-01   4.000000E-01   4.000000E-01   4.000000E-01   4.000000E-01   4.000000E-01   4.000000E-01   4.000000E-01   4.000000E-01   4.000000E-01   4.000000E-01   4.000000E-01   4.000000E-01   4.000000E-01   4.000000E-01   4.000000E-01   4.000000E-01   4.000000E-01   4.000000E-01   4.000000E-01   4.000000E-01   4.000000E-01   4.000000E-01   4.000000E-01   4.000000E-01   4.000000E-01   4.000000E-01   4.000000E-01   4.000000E-01   4.000000E-01   4.000000E-01   4.000000E-01   4.000000E-01   4.000000E-01   4.000000E-01   4.000000E-01   4.000000E-01   4.000000E-01   4.000000E-01   4.000000E-01   4.000000E-01   4.000000E-01   4.000000E-01   4.000000E-01   4.000000E-01   4.000000E-01   4.000000E-01   4.000000E-01   4.000000E-01   4.000000E-01   4.000000E-01   4.000000E-01   4.000000E-01   4.000000E-01   4.000000E-01   4.000000E-01   4.000000E-01   4.000000E-01   4.000000E-01   4.000000E-01   4.000000E-01   4.000000E-01   4.000000E-01   4.000000E-01   4.000000E-01   4.000000E-01   4.000000E-01   4.000000E-01   4.000000E-01   4.000000E-01   4.000000E-01   4.000000E-01   4.000000E-01   4.000000E-01   4.000000E-01   4.000000E-01   4.000000E-01   4.000000E-01   4.000000E-01   4.000000E-01   4.000000E-01   4.000000E-01   4.000000E-01   4.000000E-01   4.000000E-01   4.000000E-01   4.000000E-01   4.000000E-01   4.000000E-01   4.000000E-01   4.000000E-01   4.000000E-01   4.000000E-01   4.000000E-01   4.000000E-01   4.000000E-01   4.000000E-01   4.000000E-01   4.000000E-01   4.000000E-01   4.000000E-01   4.000000E-01   4.000000E-01   4.000000E-01   4.000000E-01   4.000000E-01   4.000000E-01   4.000000E-01   4.000000E-01   4.000000E-01   4.000000E-01   4.000000E-01   4.000000E-01   4.000000E-01   4.000000E-01   4.000000E-01   4.000000E-01   4.000000E-01   4.000000E-01   4.000000E-01   4.000000E-01   4.000000E-01   4.000000E-01   4.000000E-01   4.000000E-01   4.000000E-01   4.000000E-01   4.000000E-01   4.000000E-01   4.000000E-01   4.000000E-01   4.000000E-01   4.000000E-01   4.000000E-01   4.000000E-01   4.000000E-01   4.000000E-01   4.000000E-01   4.000000E-01   4.000000E-01   4.000000E-01   4.000000E-01   4.000000E-01   4.000000E-01   4.000000E-01   4.000000E-01   4.000000E-01   4.000000E-01   4.000000E-01   4.000000E-01   4.000000E-01   4.000000E-01   4.000000E-01   4.000000E-01   4.000000E-01   4.000000E-01   4.000000E-01   4.000000E-01   4.000000E-01   4.000000E-01   4.000000E-01   4.000000E-01   4.000000E-01   4.000000E-01   4.000000E-01   4.000000E-01   4.000000E-01   4.000000E-01   4.000000E-01   4.000000E-01   4.000000E-01   4.000000E-01   4.000000E-01   4.000000E-01   4.000000E-01   4.000000E-01   4.000000E-01   4.000000E-01   4.000000E-01   4.000000E-01   4.000000E-01   4.000000E-01   4.000000E-01   4.000000E-01   4.000000E-01   4.000000E-01   4.000000E-01   4.000000E-01   4.000000E-01   4.000000E-01   4.000000E-01   4.000000E-01   4.000000E-01   4.000000E-01   4.000000E-01   4.000000E-01   4.000000E-01   4.000000E-01   4.000000E-01   4.000000E-01   4.000000E-01   4.000000E-01   4.000000E-01   4.000000E-01   4.000000E-01   4.000000E-01   4.000000E-01   4.000000E-01   4.000000E-01   4.000000E-01   4.000000E-01   4.000000E-01   4.000000E-01   4.000000E-01   4.000000E-01   4.000000E-01   4.000000E-01   4.000000E-01   4.000000E-01   4.000000E-01   4.000000E-01   4.000000E-01   4.000000E-01   4.000000E-01   4.000000E-01   4.000000E-01   4.000000E-01   4.000000E-01   4.000000E-01   4.000000E-01   4.000000E-01   4.000000E-01   4.000000E-01   4.000000E-01   4.000000E-01   4.000000E-01   4.000000E-01   4.000000E-01   4.000000E-01   4.000000E-01   4.000000E-01   4.000000E-01   4.000000E-01   4.000000E-01   4.000000E-01   4.000000E-01   4.000000E-01   4.000000E-01   4.000000E-01   4.000000E-01   4.000000E-01   4.000000E-01   4.000000E-01   4.000000E-01   4.000000E-01   4.000000E-01   4.000000E-01   4.000000E-01   4.000000E-01   4.000000E-01   4.000000E-01   4.000000E-01   4.000000E-01   4.000000E-01   4.000000E-01   4.000000E-01   4.000000E-01   4.000000E-01   4.000000E-01   4.000000E-01   4.000000E-01   4.000000E-01   4.000000E-01   4.000000E-01   4.000000E-01   4.000000E-01   4.000000E-01   4.000000E-01   4.000000E-01   4.000000E-01   4.000000E-01   4.000000E-01   4.000000E-01   4.000000E-01   4.000000E-01   4.000000E-01   4.000000E-01   4.000000E-01   4.000000E-01   4.000000E-01   4.000000E-01   4.000000E-01   4.000000E-01   4.000000E-01   4.000000E-01   4.000000E-01   4.000000E-01   4.000000E-01   4.000000E-01   4.000000E-01   4.000000E-01   4.000000E-01   4.000000E-01   4.000000E-01   4.000000E-01   4.000000E-01   4.000000E-01   4.000000E-01   4.000000E-01   4.000000E-01   4.000000E-01   4.000000E-01   4.000000E-01   4.000000E-01   4.000000E-01   4.000000E-01   4.000000E-01   4.000000E-01   4.000000E-01   4.000000E-01   4.000000E-01   4.000000E-01   4.000000E-01   4.000000E-01   4.000000E-01   4.000000E-01   4.000000E-01   4.000000E-01   4.000000E-01   4.000000E-01   4.000000E-01   4.000000E-01   4.000000E-01   4.000000E-01   4.000000E-01   4.000000E-01   4.000000E-01   4.000000E-01   4.000000E-01   4.000000E-01   4.000000E-01   4.000000E-01   4.000000E-01   4.000000E-01   4.000000E-01   4.000000E-01   4.000000E-01   4.000000E-01   4.000000E-01   4.000000E-01   4.000000E-01   4.000000E-01   4.000000E-01   4.000000E-01   4.000000E-01   4.000000E-01   4.000000E-01   4.000000E-01   4.000000E-01   4.000000E-01   4.000000E-01   4.000000E-01   4.000000E-01   4.000000E-01   4.000000E-01   4.000000E-01   4.000000E-01   4.000000E-01   4.000000E-01   4.000000E-01   4.000000E-01   4.000000E-01   4.000000E-01   4.000000E-01   4.000000E-01   4.000000E-01   4.000000E-01   4.000000E-01   4.000000E-01   4.000000E-01   4.000000E-01   4.000000E-01   4.000000E-01   4.000000E-01   4.000000E-01   4.000000E-01   4.000000E-01   4.000000E-01   4.000000E-01   4.000000E-01   4.000000E-01   4.000000E-01   4.000000E-01   4.000000E-01   4.000000E-01   4.000000E-01   4.000000E-01   4.000000E-01   4.000000E-01   4.000000E-01   4.000000E-01   4.000000E-01   4.000000E-01   4.000000E-01   4.000000E-01   4.000000E-01   4.000000E-01   4.000000E-01   4.000000E-01   4.000000E-01   4.000000E-01   4.000000E-01   4.000000E-01   4.000000E-01   4.000000E-01   4.000000E-01   4.000000E-01   4.000000E-01   4.000000E-01   4.000000E-01   4.000000E-01   4.000000E-01   4.000000E-01   4.000000E-01   4.000000E-01   4.000000E-01   4.000000E-01   4.000000E-01   4.000000E-01   4.000000E-01   4.000000E-01   4.000000E-01   4.000000E-01   4.000000E-01   4.000000E-01   4.000000E-01   