<?xml version="1.0"?>
<!-- Time =  1.0005502926947705E+00s -->
<VTKFile type="PolyData" version="0.1" byte_order="LittleEndian">
<PolyData>
<Piece NumberOfPoints="0000002400" NumberOfVerts="0" NumberOfLines="0" NumberOfStrips="0" NumberOfPolys="0">
<Points>
<DataArray type="Float32" Name="Position" NumberOfComponents="3" format="ascii">
  1.399084E+00   1.987257E-01   0.000000E+00   2.509686E+00   1.989116E-01   0.000000E+00   4.204327E+00   1.996033E-01   0.000000E+00   5.312986E+00   1.996268E-01   0.000000E+00   7.829743E+00   1.354597E+01   0.000000E+00   6.474819E+00   1.774770E+01   0.000000E+00   3.385787E+00   1.936647E+01   0.000000E+00   5.983732E+00   1.078926E+01   0.000000E+00   6.276086E+00   1.294101E+01   0.000000E+00   2.435465E+00   1.402683E+01   0.000000E+00   5.580682E+00   2.882528E+01   0.000000E+00   1.999678E-01   1.950454E-01   0.000000E+00   2.109506E+00   1.990873E-01   0.000000E+00   2.967970E+00   1.995724E-01   0.000000E+00   4.604333E+00   1.996859E-01   0.000000E+00   6.771230E+00   2.035004E+00   0.000000E+00   6.653243E+00   1.727556E+01   0.000000E+00   7.379624E+00   5.753886E+00   0.000000E+00   2.404787E+00   1.560297E+01   0.000000E+00   7.123212E+00   2.382686E+01   0.000000E+00   2.039994E+00   1.824489E+01   0.000000E+00   3.198292E+00   1.391853E+01   0.000000E+00   1.815580E+00   1.691818E+01   0.000000E+00   6.937644E+00   7.339152E+00   0.000000E+00   4.937117E+00   9.379481E+00   0.000000E+00   4.318263E+00   2.181141E+01   0.000000E+00   4.402712E+00   1.059626E+01   0.000000E+00   5.996721E-01   1.998393E-01   0.000000E+00   2.310236E+00   5.442674E-01   0.000000E+00   2.738226E+00   5.265833E-01   0.000000E+00   5.712864E+00   1.997498E-01   0.000000E+00   6.826542E+00   1.276039E+01   0.000000E+00   7.592050E+00   2.118375E+01   0.000000E+00   5.865742E+00   2.135245E+01   0.000000E+00   7.470995E+00   2.275420E+01   0.000000E+00   4.515046E+00   1.150441E+01   0.000000E+00   6.620733E+00   9.166470E+00   0.000000E+00   4.805933E+00   1.065189E+01   0.000000E+00   5.458649E+00   2.457610E+01   0.000000E+00   6.022350E+00   1.332365E+01   0.000000E+00   7.581362E+00   2.821219E+01   0.000000E+00   1.997996E-01   5.903088E-01   0.000000E+00   9.993999E-01   1.996747E-01   0.000000E+00   1.754731E+00   7.817963E-01   0.000000E+00   3.404957E+00   1.976569E-01   0.000000E+00   6.526333E+00   2.074063E-01   0.000000E+00   7.144614E+00   1.130874E+01   0.000000E+00   6.275778E+00   2.071385E+01   0.000000E+00   5.593378E+00   2.268513E+01   0.000000E+00   3.659394E+00   2.608968E+01   0.000000E+00   7.717259E+00   8.845984E+00   0.000000E+00   2.547657E+00   1.441782E+01   0.000000E+00   5.163240E+00   1.104817E+01   0.000000E+00   4.123312E+00   1.309595E+01   0.000000E+00   4.691417E+00   2.323037E+01   0.000000E+00   5.996868E-01   5.997907E-01   0.000000E+00   1.754159E+00   3.821125E-01   0.000000E+00   2.537853E+00   8.724139E-01   0.000000E+00   5.512730E+00   5.460452E-01   0.000000E+00   7.680028E+00   1.296333E+01   0.000000E+00   4.428146E+00   2.055684E+01   0.000000E+00   7.352030E+00   9.388297E+00   0.000000E+00   7.642973E+00   2.968521E+01   0.000000E+00   7.546594E+00   3.008898E+01   0.000000E+00   5.585133E+00   1.567267E+01   0.000000E+00   2.240019E+00   1.697787E+01   0.000000E+00   4.518568E+00   1.332310E+01   0.000000E+00   4.408951E+00   2.418070E+01   0.000000E+00   3.994393E+00   1.270964E+01   0.000000E+00   3.908789E+00   1.382901E+01   0.000000E+00   7.292351E+00   8.157947E+00   0.000000E+00   1.986436E-01   9.858214E-01   0.000000E+00   9.996656E-01   5.994004E-01   0.000000E+00   1.399690E+00   5.977483E-01   0.000000E+00   3.189612E+00   5.325989E-01   0.000000E+00   4.958795E+00   3.847350E-01   0.000000E+00   3.806942E+00   1.912444E+01   0.000000E+00   7.689089E+00   1.145046E+01   0.000000E+00   7.684469E+00   2.868614E+01   0.000000E+00   4.924040E+00   2.933397E+01   0.000000E+00   5.152424E+00   2.967500E+01   0.000000E+00   3.576315E+00   1.405678E+01   0.000000E+00   4.851011E+00   1.196127E+01   0.000000E+00   4.263927E+00   2.309977E+01   0.000000E+00   5.967494E-01   9.998493E-01   0.000000E+00   9.950985E-01   9.991875E-01   0.000000E+00   2.135720E+00   9.032481E-01   0.000000E+00   3.804664E+00   1.988189E-01   0.000000E+00   7.523066E+00   1.930818E+01   0.000000E+00   7.098835E+00   9.035151E+00   0.000000E+00   6.152857E+00   2.318810E+01   0.000000E+00   5.967249E+00   2.232816E+01   0.000000E+00   7.318844E+00   3.043137E+01   0.000000E+00   3.576409E+00   2.318452E+01   0.000000E+00   4.376281E+00   2.680615E+01   0.000000E+00   6.062829E+00   2.277888E+01   0.000000E+00   1.992724E-01   1.381689E+00   0.000000E+00   5.985408E-01   1.399697E+00   0.000000E+00   1.393406E+00   9.968190E-01   0.000000E+00   2.960352E+00   8.585855E-01   0.000000E+00   6.116747E+00   1.997874E-01   0.000000E+00   7.071427E+00   1.001228E+01   0.000000E+00   3.107517E+00   1.580240E+01   0.000000E+00   7.579654E+00   2.982127E+00   0.000000E+00   6.582307E+00   2.883343E+01   0.000000E+00   7.281686E+00   2.504293E+01   0.000000E+00   7.832971E+00   1.187593E+01   0.000000E+00   3.192206E+00   2.149713E+01   0.000000E+00   4.297040E+00   2.554900E+01   0.000000E+00   6.695989E+00   2.395903E+01   0.000000E+00   1.996609E-01   1.777755E+00   0.000000E+00   9.983127E-01   1.399142E+00   0.000000E+00   1.746186E+00   1.181456E+00   0.000000E+00   3.604049E+00   5.437483E-01   0.000000E+00   7.432491E+00   1.460963E+01   0.000000E+00   5.117095E+00   2.091031E+01   0.000000E+00   5.780575E+00   1.612581E+01   0.000000E+00   7.159942E+00   2.984519E+01   0.000000E+00   5.836854E+00   2.961077E+01   0.000000E+00   6.882497E+00   3.013349E+01   0.000000E+00   4.914710E+00   1.156468E+01   0.000000E+00   3.698304E+00   2.273262E+01   0.000000E+00   2.524865E+00   2.093866E+01   0.000000E+00   4.519144E+00   1.292675E+01   0.000000E+00   1.995152E-01   2.174144E+00   0.000000E+00   5.983763E-01   1.799439E+00   0.000000E+00   9.978302E-01   1.798980E+00   0.000000E+00   1.752593E+00   1.581301E+00   0.000000E+00   5.915512E+00   5.456612E-01   0.000000E+00   6.600562E+00   1.813803E+01   0.000000E+00   3.698126E+00   1.762974E+01   0.000000E+00   7.201889E+00   2.318256E+01   0.000000E+00   6.563447E+00   2.988960E+01   0.000000E+00   7.423589E+00   2.603050E+01   0.000000E+00   6.270591E+00   2.956803E+01   0.000000E+00   7.447352E+00   2.734056E+01   0.000000E+00   5.160673E+00   1.361796E+01   0.000000E+00   2.306364E+00   1.599823E+01   0.000000E+00   4.556310E+00   1.407093E+01   0.000000E+00   4.502051E+00   2.459373E+01   0.000000E+00   2.107040E-01   2.570501E+00   0.000000E+00   6.005304E-01   2.199083E+00   0.000000E+00   1.398058E+00   1.396538E+00   0.000000E+00   4.403109E+00   5.463920E-01   0.000000E+00   6.901861E+00   4.258684E-01   0.000000E+00   3.518889E+00   1.841536E+01   0.000000E+00   7.966374E+00   9.398950E+00   0.000000E+00   4.003834E+00   1.525530E+01   0.000000E+00   5.263778E+00   2.292276E+01   0.000000E+00   5.646926E+00   2.842600E+01   0.000000E+00   2.135187E+00   1.774035E+01   0.000000E+00   3.277113E+00   1.432041E+01   0.000000E+00   5.362219E+00   2.233052E+01   0.000000E+00   1.991195E-01   2.966914E+00   0.000000E+00   6.092315E-01   2.598669E+00   0.000000E+00   1.000543E+00   2.198784E+00   0.000000E+00   2.761037E+00   1.203651E+00   0.000000E+00   5.158529E+00   7.318638E-01   0.000000E+00   7.187642E+00   1.382901E+01   0.000000E+00   4.789583E+00   1.514071E+01   0.000000E+00   3.072832E+00   1.669917E+01   0.000000E+00   6.897642E+00   1.976922E+01   0.000000E+00   6.438865E+00   2.428259E+01   0.000000E+00   7.861471E+00   3.037915E+01   0.000000E+00   2.813210E+00   2.130108E+01   0.000000E+00   1.938762E+00   1.614963E+01   0.000000E+00   4.620162E+00   2.640360E+01   0.000000E+00   4.524705E+00   9.394599E+00   0.000000E+00   2.021755E-01   3.363425E+00   0.000000E+00   5.974301E-01   2.998011E+00   0.000000E+00   1.397268E+00   1.796309E+00   0.000000E+00   1.751288E+00   1.981253E+00   0.000000E+00   3.388334E+00   8.793937E-01   0.000000E+00   6.664646E+00   7.476095E-01   0.000000E+00   7.854703E+00   1.475439E+01   0.000000E+00   6.926538E+00   8.485012E+00   0.000000E+00   7.349803E+00   1.865559E+01   0.000000E+00   7.951262E+00   1.160631E+00   0.000000E+00   5.777739E+00   2.379510E+01   0.000000E+00   4.935400E+00   2.826015E+01   0.000000E+00   6.499052E+00   2.922438E+01   0.000000E+00   4.753003E+00   1.237941E+01   0.000000E+00   5.058853E+00   1.321698E+01   0.000000E+00   3.513973E+00   1.365540E+01   0.000000E+00   7.309104E+00   8.646087E+00   0.000000E+00   5.721523E-01   3.514846E+00   0.000000E+00   8.895379E-01   3.270090E+00   0.000000E+00   1.009060E+00   2.598493E+00   0.000000E+00   1.400584E+00   2.196243E+00   0.000000E+00   2.125311E+00   1.302836E+00   0.000000E+00   4.003483E+00   5.456375E-01   0.000000E+00   6.747443E+00   7.820998E+00   0.000000E+00   6.140432E+00   6.668442E+00   0.000000E+00   6.316846E+00   5.483292E-01   0.000000E+00   7.378153E+00   1.589596E+01   0.000000E+00   4.236619E+00   1.562511E+01   0.000000E+00   6.123595E+00   2.890240E+01   0.000000E+00   3.837535E+00   2.432157E+01   0.000000E+00   1.761679E+00   1.791950E+01   0.000000E+00   5.115668E+00   1.543390E+01   0.000000E+00   4.707254E+00   2.859327E+01   0.000000E+00   4.916421E+00   1.280889E+01   0.000000E+00   6.991063E-01   3.894092E+00   0.000000E+00   1.014997E+00   3.648865E+00   0.000000E+00   1.154296E+00   2.970879E+00   0.000000E+00   1.755311E+00   2.381210E+00   0.000000E+00   3.160083E+00   1.206576E+00   0.000000E+00   4.758171E+00   7.302986E-01   0.000000E+00   3.801659E+00   8.911238E-01   0.000000E+00   4.201295E+00   8.930294E-01   0.000000E+00   4.957175E+00   1.077356E+00   0.000000E+00   6.744826E+00   5.027501E+00   0.000000E+00   6.678852E+00   1.516583E+01   0.000000E+00   7.706490E+00   2.309442E+01   0.000000E+00   6.228003E+00   2.662140E+01  
[...]
<PointData Scalars="Diameter" Vectors="Velocity">
<DataArray type="Float32" Name="Diameter" format="ascii">
  4.000000E-01   4.000000E-01   4.000000E-01   4.000000E-01   4.000000E-01   4.000000E-01   4.000000E-01   4.000000E-01   4.000000E-01   4.000000E-01   4.000000E-01   4.000000E-01   4.000000E-01   4.000000E-01   4.000000E-01   4.000000E-01   4.000000E-01   4.000000E-01   4.000000E-01   4.000000E-01   4.000000E-01   4.000000E-01   4.000000E-01   4.000000E-01   4.000000E-01   4.000000E-01   4.000000E-01   4.000000E-01   4.000000E-01   4.000000E-01   4.000000E-01   4.000000E-01   4.000000E-01   4.000000E-01   4.000000E-01   4.000000E-01   4.000000E-01   4.000000E-01   4.000000E-01   4.000000E-01   4.000000E-01   4.000000E-01   4.000000E-01   4.000000E-01   4.000000E-01   4.000000E-01   4.000000E-01   4.000000E-01   4.000000E-01   4.000000E-01   4.000000E-01   4.000000E-01   4.000000E-01   4.000000E-01   4.000000E-01   4.000000E-01   4.000000E-01   4.000000E-01   4.000000E-01   4.000000E-01   4.000000E-01   4.000000E-01   4.000000E-01   4.000000E-01   4.000000E-01   4.000000E-01   4.000000E-01   4.000000E-01   4.000000E-01   4.000000E-01   4.000000E-01   4.000000E-01   4.000000E-01   4.000000E-01   4.000000E-01   4.000000E-01   4.000000E-01   4.000000E-01   4.000000E-01   4.000000E-01   4.000000E-01   4.000000E-01   4.000000E-01   4.000000E-01   4.000000E-01   4.000000E-01   4.000000E-01   4.000000E-01   4.000000E-01   4.000000E-01   4.000000E-01   4.000000E-01   4.000000E-01   4.000000E-01   4.000000E-01   4.000000E-01   4.000000E-01   4.000000E-01   4.000000E-01   4.000000E-01   4.000000E-01   4.000000E-01   4.000000E-01   4.000000E-01   4.000000E-01   4.000000E-01   4.000000E-01   4.000000E-01   4.000000E-01   4.000000E-01   4.000000E-01   4.000000E-01   4.000000E-01   4.000000E-01   4.000000E-01   4.000000E-01   4.000000E-01   4.000000E-01   4.000000E-01   4.000000E-01   4.000000E-01   4.000000E-01   4.000000E-01   4.000000E-01   4.000000E-01   4.000000E-01   4.000000E-01   4.000000E-01   4.000000E-01   4.000000E-01   4.000000E-01   4.000000E-01   4.000000E-01   4.000000E-01   4.000000E-01   4.000000E-01   4.000000E-01   4.000000E-01   4.000000E-01   4.000000E-01   4.000000E-01   4.000000E-01   4.000000E-01   4.000000E-01   4.000000E-01   4.000000E-01   4.000000E-01   4.000000E-01   4.000000E-01   4.000000E-01   4.000000E-01   4.000000E-01   4.000000E-01   4.000000E-01   4.000000E-01   4.000000E-01   4.000000E-01   4.000000E-01   4.000000E-01   4.000000E-01   4.000000E-01   4.000000E-01   4.000000E-01   4.000000E-01   4.000000E-01   4.000000E-01   4.000000E-01   4.000000E-01   4.000000E-01   4.000000E-01   4.000000E-01   4.000000E-01   4.000000E-01   4.000000E-01   4.000000E-01   4.000000E-01   4.000000E-01   4.000000E-01   4.000000E-01   4.000000E-01   4.000000E-01   4.000000E-01   4.000000E-01   4.000000E-01   4.000000E-01   4.000000E-01   4.000000E-01   4.000000E-01   4.000000E-01   4.000000E-01   4.000000E-01   4.000000E-01   4.000000E-01   4.000000E-01   4.000000E-01   4.000000E-01   4.000000E-01   4.000000E-01   4.000000E-01   4.000000E-01   4.000000E-01   4.000000E-01   4.000000E-01   4.000000E-01   4.000000E-01   4.000000E-01   4.000000E-01   4.000000E-01   4.000000E-01   4.000000E-01   4.000000E-01   4.000000E-01   4.000000E-01   4.000000E-01   4.000000E-01   4.000000E-01   4.000000E-01   4.000000E-01   4.000000E-01   4.000000E-01   4.000000E-01   4.000000E-01   4.000000E-01   4.000000E-01   4.000000E-01   4.000000E-01   4.000000E-01   4.000000E-01   4.000000E-01   4.000000E-01   4.000000E-01   4.000000E-01   4.000000E-01   4.000000E-01   4.000000E-01   4.000000E-01   4.000000E-01   4.000000E-01   4.000000E-01   4.000000E-01   4.000000E-01   4.000000E-01   4.000000E-01   4.000000E-01   4.000000E-01   4.000000E-01   4.000000E-01   4.000000E-01   4.000000E-01   4.000000E-01   4.000000E-01   4.000000E-01   4.000000E-01   4.000000E-01   4.000000E-01   4.000000E-01   4.000000E-01   4.000000E-01   4.000000E-01   4.000000E-01   4.000000E-01   4.000000E-01   4.000000E-01   4.000000E-01   4.000000E-01   4.000000E-01   4.000000E-01   4.000000E-01   4.000000E-01   4.000000E-01   4.000000E-01   4.000000E-01   4.000000E-01   4.000000E-01   4.000000E-01   4.000000E-01   4.000000E-01   4.000000E-01   4.000000E-01   4.000000E-01   4.000000E-01   4.000000E-01   4.000000E-01   4.000000E-01   4.000000E-01   4.000000E-01   4.000000E-01   4.000000E-01   4.000000E-01   4.000000E-01   4.000000E-01   4.000000E-01   4.000000E-01   4.000000E-01   4.000000E-01   4.000000E-01   4.000000E-01   4.000000E-01   4.000000E-01   4.000000E-01   4.000000E-01   4.000000E-01   4.000000E-01   4.000000E-01   4.000000E-01   4.000000E-01   4.000000E-01   4.000000E-01   4.000000E-01   4.000000E-01   4.000000E-01   4.000000E-01   4.000000E-01   4.000000E-01   4.000000E-01   4.000000E-01   4.000000E-01   4.000000E-01   4.000000E-01   4.000000E-01   4.000000E-01   4.000000E-01   4.000000E-01   4.000000E-01   4.000000E-01   4.000000E-01   4.000000E-01   4.000000E-01   4.000000E-01   4.000000E-01   4.000000E-01   4.000000E-01   4.000000E-01   4.000000E-01   4.000000E-01   4.000000E-01   4.000000E-01   4.000000E-01   4.000000E-01   4.000000E-01   4.000000E-01   4.000000E-01   4.000000E-01   4.000000E-01   4.000000E-01   4.000000E-01   4.000000E-01   4.000000E-01   4.000000E-01   4.000000E-01   4.000000E-01   4.000000E-01   4.000000E-01   4.000000E-01   4.000000E-01   4.000000E-01   4.000000E-01   4.000000E-01   4.000000E-01   4.000000E-01   4.000000E-01   4.000000E-01   4.000000E-01   4.000000E-01   4.000000E-01   4.000000E-01   4.000000E-01   4.000000E-01   4.000000E-01   4.000000E-01   4.000000E-01   4.000000E-01   4.000000E-01   4.000000E-01   4.000000E-01   4.000000E-01   4.000000E-01   4.000000E-01   4.000000E-01   4.000000E-01   4.000000E-01   4.000000E-01   4.000000E-01   4.000000E-01   4.000000E-01   4.000000E-01   4.000000E-01   4.000000E-01   4.000000E-01   4.000000E-01   4.000000E-01   4.000000E-01   4.000000E-01   4.000000E-01   4.000000E-01   4.000000E-01   4.000000E-01   4.000000E-01   4.000000E-01   4.000000E-01   4.000000E-01   4.000000E-01   4.000000E-01   4.000000E-01   4.000000E-01   4.000000E-01   4.000000E-01   4.000000E-01   4.000000E-01   4.000000E-01   4.000000E-01   4.000000E-01   4.000000E-01   4.000000E-01   4.000000E-01   4.000000E-01   4.000000E-01   4.000000E-01   4.000000E-01   4.000000E-01   4.000000E-01   4.000000E-01   4.000000E-01   4.000000E-01   4.000000E-01   4.000000E-01   4.000000E-01   4.000000E-01   4.000000E-01   4.000000E-01   4.000000E-01   4.000000E-01   4.000000E-01   4.000000E-01   4.000000E-01   4.000000E-01   4.000000E-01   4.000000E-01   4.000000E-01   4.000000E-01   4.000000E-01   4.000000E-01   4.000000E-01   4.000000E-01   4.000000E-01   4.000000E-01   4.000000E-01   4.000000E-01   4.000000E-01   4.000000E-01   4.000000E-01   4.000000E-01   4.000000E-01   4.000000E-01   4.000000E-01   4.000000E-01   4.000000E-01   4.000000E-01   4.000000E-01   4.000000E-01   4.000000E-01   4.000000E-01   4.000000E-01   4.000000E-01   4.000000E-01   4.000000E-01   4.000000E-01   4.000000E-01   4.000000E-01   4.000000E-01   4.000000E-01   4.000000E-01   4.000000E-01   4.000000E-01   4.000000E-01   4.000000E-01   4.000000E-01   4.000000E-01   4.000000E-01   4.000000E-01   4.000000E-01   4.000000E-01   4.000000E-01   4.000000E-01   4.000000E-01   4.000000E-01   4.000000E-01   4.000000E-01   4.000000E-01   4.000000E-01   4.000000E-01   4.000000E-01   4.000000E-01   4.000000E-01   4.000000E-01   4.000000E-01   4.000000E-01   4.000000E-01   4.000000E-01   4.000000E-01   4.000000E-01   4.000000E-01   4.000000E-01   4.000000E-01   4.000000E-01   4.000000E-01   4.000000E-01   4.000000E-01   4.000000E-01   4.000000E-01   4.000000E-01   4.000000E-01   4.000000E-01   4.000000E-01   4.000000E-01   4.000000E-01   4.000000E-01   4.000000E-01   4.000000E-01   4.000000E-01   4.000000E-01   4.000000E-01   4.000000E-01   4.000000E-01   4.000000E-01   4.000000E-01   4.000000E-01   4.000000E-01   4.000000E-01   4.000000E-01   4.000000E-01   4.000000E-01   4.000000E-01   4.000000E-01   4.000000E-01   4.000000E-01   4.000000E-01   4.000000E-01   4.000000E-01   4.000000E-01   4.000000E-01   4.000000E-01   4.000000E-01   4.000000E-01   4.000000E-01   4.000000E-01   4.000000E-01   4.000000E-01   4.000000E-01   4.000000E-01   4.000000E-01   4.000000E-01   4.000000E-01   4.000000E-01   4.000000E-01   4.000000E-01   4.000000E-01   4.000000E-01   4.000000E-01   4.000000E-01   4.000000E-01   4.000000E-01   4.000000E-01   4.000000E-01   4.000000E-01   4.000000E-01   4.000000E-01   4.000000E-01   4.000000E-01   4.000000E-01   4.000000E-01   4.000000E-01   4.000000E-01   4.000000E-01   4.000000E-01   4.000000E-01   4.000000E-01   4.000000E-01   4.000000E-01   4.000000E-01   4.000000E-01   4.000000E-01   4.000000E-01   4.000000E-01   4.000000E-01   4.000000E-01   4.000000E-01   4.000000E-01   4.000000E-01   4.000000E-01   4.000000E-01   4.000000E-01   4.000000E-01   4.000000E-01   4.000000E-01   4.000000E-01   4.000000E-01   4.000000E-01   4.000000E-01   4.000000E-01   4.000000E-01   4.000000E-01   4.000000E-01   4.000000E-01   4.000000E-01   4.000000E-01   4.000000E-01   4.000000E-01   4.000000E-01   4.000000E-01   4.000000E-01   4.000000E-01   4.000000E-01   4.000000E-01   4.000000E-01   4.000000E-01   4.000000E-01   4.000000E-01   4.000000E-01   4.000000E-01   4.000000E-01   4.000000E-01   4.000000E-01   4.000000E-01   4.000000E-01   4.000000E-01   4.000000E-01   4.000000E-01   4.000000E-01   4.000000E-01   4.000000E-01   4.000000E-01   4.000000E-01   4.000000E-01   4.000000E-01   4.000000E-01   4.000000E-01   4.000000E-01   4.000000E-01   4.000000E-01   4.000000E-01   4.000000E-01   4.000000E-01   4.000000E-01   4.000000E-01   4.000000E-01   4.000000E-01   4.000000E-01   4.000000E-01   4.000000E-01   4.000000E-01   4.000000E-01   4.000000E-01   4.000000E-01   4.000000E-01   4.000000E-01   4.000000E-01   4.000000E-01   4.000000E-01   4.000000E-01   4.000000E-01   4.000000E-01   4.000000E-01   4.000000E-01   4.000000E-01   4.000000E-01   4.000000E-01   4.000000E-01   4.000000E-01   4.000000E-01   4.000000E-01   4.000000E-01   4.000000E-01   4.000000E-01   4.000000E-01   4.000000E-01   4.000000E-01   4.000000E-01   4.000000E-01   4.000000E-01   4.000000E-01   4.000000E-01   4.000000E-01   4.000000E-01   4.000000E-01   4.000000E-01   4.000000E-01   4.000000E-01   4.000000E-01   4.000000E-01   4.000000E-01   4.000000E-01   4.000000E-01   4.000000E-01   4.000000E-01   4.000000E-01   4.000000E-01   4.000000E-01   4.000000E-01   4.000000E-01   4.000000E-01   4.000000E-01   4.000000E-01   4.000000E-01   4.000000E-01   4.000000E-01   4.000000E-01   4.000000E-01   4.000000E-01   4.000000E-01   4.000000E-01   4.000000E-01   4.000000E-01   4.000000E-01   4.000000E-01   4.000000E-01   4.000000E-01   4.000000E-01   4.000000E-01   4.000000E-01   4.000000E-01   4.000000E-01   4.000000E-01   4.000000E-01   4.000000E-01   4.000000E-01   4.000000E-01   4.000000E-01   4.000000E-01   4.000000E-01   4.000000E-01   4.000000E-01   4.000000E-01   4.000000E-01   4.000000E-01   4.000000E-01   4.000000E-01   4.000000E-01   4.000000E-01   4.000000E-01   4.000000E-01   4.000000E-01   4.000000E-01   4.000000E-01   4.000000E-01   4.000000E-01   4.000000E-01   4.000000E-01   4.000000E-01   4.000000E-01   4.000000E-01   4.000000E-01   4.000000E-01   4.000000E-01   4.000000E-01   4.000000E-01   4.000000E-01   4.000000E-01   4.000000E-01   4.000000E-01   4.000000E-01   4.000000E-01   4.000000E-01   4.000000E-01   4.000000E-01   4.000000E-01   4.000000E-01   4.000000E-01   4.000000E-01   4.000000E-01   4.000000E-01   4.000000E-01   4.000000E-01   4.000000E-01   4.000000E-01   4.000000E-01   4.000000E-01   4.000000E-01   4.000000E-01   4.000000E-01   4.000000E-01   4.000000E-01   4.000000E-01   4.000000E-01   4.000000E-01   4.000000E-01   4.000000E-01   4.000000E-01   4.000000E-01   4.000000E-01   4.000000E-01   4.000000E-01   4.000000E-01   4.000000E-01   4.000000E-01   4.000000E-01   4.000000E-01   4.000000E-01   4.000000E-01   4.000000E-01   4.000000E-01   4.000000E-01   4.000000E-01   4.000000E-01   4.000000E-01   4.000000E-01   4.000000E-01   4.000000E-01   4.000000E-01   4.000000E-01   4.000000E-01   4.000000E-01   4.000000E-01   4.000000E-01   4.000000E-01   4.000000E-01   4.000000E-01   4.000000E-01   4.000000E-01   4.000000E-01   4.000000E-01   4.000000E-01   4.000000E-01   4.000000E-01   4.000000E-01   4.000000E-01   4.000000E-01   4.000000E-01   4.000000E-01   4.000000E-01   4.000000E-01   4.000000E-01   4.000000E-01   4.000000E-01   4.000000E-01   4.000000E-01   4.000000E-01   4.000000E-01   4.000000E-01   4.000000E-01   4.000000E-01   4.000000E-01   4.000000E-01   4.000000E-01   4.000000E-01   4.000000E-01   4.000000E-01   4.000000E-01   4.000000E-01   4.000000E-01   4.000000E-01   4.000000E-01   4.000000E-01   4.000000E-01   4.000000E-01   4.000000E-01   4.000000E-01   4.000000E-01   4.000000E-01   4.000000E-01   4.000000E-01   4.000000E-01   4.000000E-01   4.000000E-01   4.000000E-01   4.000000E-01   4.000000E-01   4.000000E-01   4.000000E-01   4.000000E-01   4.000000E-01   4.000000E-01   4.000000E-01   4.000000E-01   4.000000E-01   4.000000E-01   4.000000E-01   4.000000E-01   4.000000E-01   4.000000E-01   4.000000E-01   4.000000E-01   4.000000E-01   4.000000E-01   4.000000E-01   4.000000E-01   4.000000E-01   4.000000E-01   4.000000E-01   4.000000E-01   4.000000E-01   4.000000E-01   4.000000E-01   4.000000E-01   4.000000E-01   4.000000E-01   4.000000E-01   4.000000E-01   4.000000E-01   4.000000E-01   4.000000E-01   4.000000E-01   4.000000E-01   4.000000E-01   4.000000E-01   4.000000E-01   4.000000E-01   4.000000E-01   4.000000E-01   4.000000E-01   4.000000E-01   4.000000E-01   4.000000E-01   4.000000E-01   4.000000E-01   4.000000E-01   4.000000E-01   4.000000E-01   4.000000E-01   4.000000E-01   4.000000E-01   4.000000E-01   4.000000E-01   4.000000E-01   4.000000E-01   4.000000E-01   4.000000E-01   4.000000E-01   4.000000E-01   4.000000E-01   4.000000E-01   4.000000E-01   4.000000E-01   4.000000E-01   4.000000E-01   4.000000E-01   4.000000E-01   4.000000E-01   4.000000E-01   4.000000E-01   4.000000E-01   4.000000E-01   4.000000E-01   4.000000E-01   4.000000E-01   4.000000E-01   4.000000E-01   4.000000E-01   4.000000E-01   4.000000E-01   4.000000E-01   4.000000E-01   4.000000E-01   4.000000E-01   4.000000E-01   4.000000E-01   4.000000E-01   4.000000E-01   4.000000E-01   4.000000E-01   4.000000E-01   4.000000E-01   4.000000E-01   4.000000E-01   4.000000E-01   4.000000E-01   4.000000E-01   4.000000E-01   4.000000E-01   4.000000E-01   4.000000E-01   4.000000E-01   4.000000E-01   4.000000E-01   4.000000E-01   4.000000E-01   4.000000E-01   4.000000E-01   4.000000E-01   4.000000E-01   4.000000E-01   4.000000E-01   4.000000E-01   4.000000E-01   4.000000E-01   4.000000E-01   4.000000E-01   4.000000E-01   4.000000E-01   4.000000E-01   4.000000E-01   4.000000E-01   4.000000E-01   4.000000E-01   4.000000E-01   4.000000E-01   4.000000E-01   4.000000E-01   4.000000E-01   4.000000E-01   4.000000E-01   4.000000E-01   4.000000E-01   4.000000E-01   4.000000E-01   4.000000E-01   4.000000E-01   4.000000E-01   4.000000E-01   4.000000E-01   4.000000E-01   4.000000E-01   4.000000E-01   4.000000E-01   4.000000E-01   4.000000E-01   4.000000E-01   4.000000E-01   4.000000E-01   4.000000E-01   4.000000E-01   4.000000E-01   4.000000E-01   4.000000E-01   4.000000E-01   4.000000E-01   4.000000E-01   4.000000E-01   4.000000E-01   4.000000E-01   4.000000E-01   4.000000E-01   4.000000E-01   4.000000E-01   4.000000E-01   4.000000E-01   4.000000E-01   4.000000E-01   4.000000E-01   4.000000E-01   4.000000E-01   4.000000E-01   4.000000E-01   4.000000E-01   4.000000E-01   4.000000E-01   4.000000E-01   4.000000E-01   4.000000E-01   4.000000E-01   4.000000E-01   4.000000E-01   4.000000E-01   4.000000E-01   4.000000E-01   4.000000E-01   4.000000E-01   4.000000E-01   4.000000E-01   4.000000E-01   4.000000E-01   4.000000E-01   4.000000E-01   4.000000E-01   4.000000E-01   4.000000E-01   4.000000E-01   4.000000E-01   4.000000E-01   4.000000E-01   4.000000E-01   4.000000E-01   4.000000E-01   4.000000E-01   4.000000E-01   4.000000E-01   4.000000E-01   4.000000E-01   4.000000E-01   4.000000E-01   4.000000E-01   4.000000E-01   4.000000E-01   4.000000E-01   4.000000E-01   4.000000E-01   4.000000E-01   4.000000E-01   4.000000E-01   4.000000E-01   4.000000E-01   4.000000E-01   4.000000E-01   4.000000E-01   4.000000E-01   4.000000E-01   4.000000E-01   4.000000E-01   4.000000E-01   4.000000E-01   4.000000E-01   4.000000E-01   4.000000E-01   4.000000E-01   4.000000E-01   4.000000E-01   4.000000E-01   4.000000E-01   4.000000E-01   4.000000E-01   4.000000E-01   4.000000E-01   4.000000E-01   4.000000E-01   4.000000E-01   4.000000E-01   4.000000E-01   4.000000E-01   4.000000E-01   4.000000E-01   4.000000E-01   4.000000E-01   4.000000E-01   4.000000E-01   4.000000E-01   4.000000E-01   4.000000E-01   4.000000E-01   4.000000E-01   4.000000E-01   4.000000E-01   4.000000E-01   4.000000E-01   4.000000E-01   4.000000E-01   4.000000E-01   4.000000E-01   4.000000E-01   4.000000E-01   4.000000E-01   4.000000E-01   4.000000E-01   4.000000E-01   4.000000E-01   4.000000E-01   4.000000E-01   4.000000E-01   4.000000E-01   4.000000E-01   4.000000E-01   4.000000E-01   4.000000E-01   4.000000E-01   4.000000E-01   4.000000E-01   4.000000E-01   4.000000E-01   4.000000E-01   4.000000E-01   4.000000E-01   4.000000E-01   4.000000E-01   4.000000E-01   4.000000E-01   4.000000E-01   4.000000E-01   4.000000E-01   4.000000E-01   4.000000E-01   4.000000E-01   4.000000E-01   4.000000E-01   4.000000E-01   4.000000E-01   4.000000E-01   4.000000E-01   4.000000E-01   4.000000E-01   4.000000E-01   4.000000E-01   4.000000E-01   4.000000E-01   4.000000E-01   4.000000E-01   4.000000E-01   4.000000E-01   4.000000E-01   4.000000E-01   4.000000E-01   4.000000E-01   4.000000E-01   4.000000E-01   4.000000E-01   4.000000E-01   4.000000E-01   4.000000E-01   4.000000E-01   4.000000E-01   4.000000E-01   4.000000E-01   4.000000E-01   4.000000E-01   4.000000E-01   4.000000E-01   4.000000E-01   4.000000E-01   4.000000E-01   4.000000E-01   4.000000E-01   4.000000E-01   4.000000E-01   4.000000E-01   4.000000E-01   4.000000E-01   4.000000E-01   4.000000E-01   4.000000E-01   4.000000E-01   4.000000E-01   4.000000E-01   4.000000E-01   4.000000E-01   4.000000E-01   4.000000E-01   4.000000E-01   4.000000E-01   4.000000E-01   4.000000E-01   4.000000E-01   4.000000E-01   4.000000E-01   4.000000E-01   4.000000E-01   4.000000E-01   4.000000E-01   4.000000E-01   4.000000E-01   4.000000E-01   4.000000E-01   4.000000E-01   4.000000E-01   4.000000E-01   4.000000E-01   4.000000E-01   4.000000E-01   4.000000E-01   4.000000E-01   4.000000E-01   4.000000E-01   4.000000E-01   4.000000E-01   4.000000E-01   4.000000E-01   4.000000E-01   4.000000E-01   4.000000E-01   4.000000E-01   4.000000E-01   4.000000E-01   4.000000E-01   4.000000E-01   4.000000E-01   4.000000E-01   4.000000E-01   4.000000E-01   4.000000E-01   4.000000E-01   4.000000E-01   4.000000E-01   4.000000E-01   4.000000E-01   4.000000E-01   4.000000E-01   4.000000E-01   4.000000E-01   4.000000E-01   4.000000E-01   4.000000E-01   4.000000E-01   4.000000E-01   4.000000E-01   4.000000E-01   4.000000E-01   4.000000E-01   4.000000E-01   4.000000E-01   4.000000E-01   4.000000E-01   4.000000E-01   4.000000E-01   4.000000E-01   4.000000E-01   4.000000E-01   4.000000E-01   4.000000E-01   4.000000E-01   4.000000E-01   4.000000E-01   4.000000E-01   4.000000E-01   4.000000E-01   4.000000E-01   4.000000E-01   4.000000E-01   4.000000E-01   4.000000E-01   4.000000E-01   4.000000E-01   4.000000E-01   4.000000E-01   4.000000E-01   4.000000E-01   4.000000E-01   4.000000E-01   4.000000E-01   4.000000E-01   4.000000E-01   4.000000E-01   4.000000E-01   4.000000E-01   4.000000E-01   4.000000E-01   4.000000E-01   4.000000E-01   4.000000E-01   4.000000E-01   