<?xml version="1.0"?>
<!-- Time =  7.0039029269476960E-01s -->
<VTKFile type="PolyData" version="0.1" byte_order="LittleEndian">
<PolyData>
<Piece NumberOfPoints="0000002400" NumberOfVerts="0" NumberOfLines="0" NumberOfStrips="0" NumberOfPolys="0">
<Points>
<DataArray type="Float32" Name="Position" NumberOfComponents="3" format="ascii">
  1.384186E+00   1.996231E-01   0.000000E+00   2.183997E+00   1.999798E-01   0.000000E+00   3.402883E+00   1.993650E-01   0.000000E+00   3.830786E+00   1.976858E-01   0.000000E+00   6.043779E+00   2.001683E-01   0.000000E+00   6.444705E+00   2.243298E-01   0.000000E+00   7.436913E+00   3.404273E+00   0.000000E+00   7.912315E+00   2.106280E+01   0.000000E+00   7.374116E+00   9.228484E+00   0.000000E+00   3.273705E+00   1.100733E+01   0.000000E+00   3.682509E+00   1.061359E+01   0.000000E+00   3.807966E+00   1.611150E+01   0.000000E+00   5.219481E+00   2.163146E+01   0.000000E+00   6.990562E+00   6.757190E+00   0.000000E+00   1.998875E-01   1.993577E-01   0.000000E+00   1.784182E+00   1.995958E-01   0.000000E+00   2.596402E+00   1.984376E-01   0.000000E+00   3.617857E+00   5.344286E-01   0.000000E+00   5.126450E+00   1.987847E-01   0.000000E+00   6.230634E+00   5.628953E-01   0.000000E+00   7.196211E+00   6.791090E-01   0.000000E+00   6.619308E+00   1.393985E+01   0.000000E+00   7.183195E+00   1.808893E+01   0.000000E+00   4.127122E+00   1.723184E+01   0.000000E+00   4.387077E+00   1.567435E+01   0.000000E+00   4.192588E+00   1.641400E+01   0.000000E+00   7.956326E+00   1.561515E+01   0.000000E+00   3.430208E+00   1.245722E+01   0.000000E+00   6.402767E+00   1.737726E+01   0.000000E+00   3.961571E+00   1.466065E+01   0.000000E+00   7.783561E+00   2.302654E+01   0.000000E+00   5.995018E-01   1.976636E-01   0.000000E+00   1.982188E+00   5.461844E-01   0.000000E+00   2.390932E+00   5.405092E-01   0.000000E+00   4.263395E+00   1.986354E-01   0.000000E+00   5.625270E+00   1.996133E-01   0.000000E+00   6.734215E+00   7.171552E-01   0.000000E+00   7.266749E+00   1.274353E+01   0.000000E+00   7.452932E+00   1.632189E+01   0.000000E+00   4.144144E+00   1.419037E+01   0.000000E+00   7.983249E+00   1.807857E+01   0.000000E+00   3.732986E+00   1.293754E+01   0.000000E+00   5.145828E+00   1.943783E+01   0.000000E+00   3.749890E+00   1.156953E+01   0.000000E+00   6.770210E+00   2.023016E+01   0.000000E+00   2.036680E-01   5.988660E-01   0.000000E+00   9.915176E-01   2.755236E-01   0.000000E+00   1.781707E+00   8.937282E-01   0.000000E+00   3.002204E+00   1.984723E-01   0.000000E+00   4.683712E+00   1.991152E-01   0.000000E+00   5.830197E+00   5.431110E-01   0.000000E+00   5.629036E+00   8.105965E+00   0.000000E+00   6.593130E+00   1.773493E+01   0.000000E+00   7.209345E+00   2.181720E+01   0.000000E+00   4.023788E+00   2.156111E+01   0.000000E+00   4.428708E+00   1.609160E+01   0.000000E+00   3.992860E+00   1.255580E+01   0.000000E+00   5.173150E+00   1.449819E+01   0.000000E+00   5.164386E+00   1.872614E+01   0.000000E+00   7.857379E+00   1.633466E+01   0.000000E+00   6.099225E-01   5.958502E-01   0.000000E+00   1.579440E+00   5.484747E-01   0.000000E+00   2.191520E+00   8.866012E-01   0.000000E+00   4.046298E+00   5.334021E-01   0.000000E+00   5.374842E+00   5.112200E-01   0.000000E+00   7.143388E+00   7.884748E+00   0.000000E+00   6.501674E+00   2.190186E+01   0.000000E+00   6.559918E+00   2.231287E+01   0.000000E+00   4.239589E+00   1.328614E+01   0.000000E+00   5.519990E+00   1.556846E+01   0.000000E+00   4.768427E+00   1.460680E+01   0.000000E+00   4.343288E+00   1.933298E+01   0.000000E+00   4.120630E+00   1.536748E+01   0.000000E+00   3.994229E+00   1.575285E+01   0.000000E+00   1.999265E-01   9.984329E-01   0.000000E+00   1.001795E+00   6.752668E-01   0.000000E+00   1.347948E+00   8.755745E-01   0.000000E+00   2.800817E+00   5.417008E-01   0.000000E+00   3.832305E+00   8.696916E-01   0.000000E+00   6.954223E+00   3.605654E+00   0.000000E+00   7.908102E+00   1.110562E+01   0.000000E+00   6.564399E+00   2.057078E+01   0.000000E+00   7.171924E+00   2.094642E+01   0.000000E+00   7.135377E+00   2.258523E+01   0.000000E+00   5.236788E+00   2.314003E+01   0.000000E+00   5.632521E+00   2.308858E+01   0.000000E+00   5.497499E+00   1.474080E+01   0.000000E+00   4.984942E+00   1.360186E+01   0.000000E+00   4.749787E+00   1.874592E+01   0.000000E+00   7.908055E+00   2.264512E+01   0.000000E+00   5.997739E-01   9.944275E-01   0.000000E+00   9.914991E-01   1.074960E+00   0.000000E+00   1.994088E+00   1.232998E+00   0.000000E+00   3.203360E+00   5.443787E-01   0.000000E+00   6.398321E+00   9.348191E-01   0.000000E+00   7.506216E+00   6.537416E+00   0.000000E+00   6.781900E+00   1.809387E+01   0.000000E+00   7.025416E+00   1.701912E+01   0.000000E+00   7.886724E+00   2.146134E+01   0.000000E+00   6.834598E+00   2.168302E+01   0.000000E+00   6.656360E+00   2.315374E+01   0.000000E+00   4.396880E+00   1.893207E+01   0.000000E+00   3.809705E+00   2.191468E+01   0.000000E+00   7.568807E+00   2.023322E+01   0.000000E+00   7.203459E+00   1.737900E+01   0.000000E+00   1.996876E-01   1.398014E+00   0.000000E+00   5.994543E-01   1.392882E+00   0.000000E+00   1.337170E+00   1.275640E+00   0.000000E+00   2.594254E+00   8.839963E-01   0.000000E+00   4.474324E+00   5.385880E-01   0.000000E+00   6.644997E+00   1.496768E+00   0.000000E+00   6.635690E+00   9.704758E+00   0.000000E+00   5.581326E+00   2.091931E+01   0.000000E+00   6.569466E+00   1.918064E+01   0.000000E+00   7.364908E+00   1.988863E+01   0.000000E+00   5.191787E+00   1.763645E+01   0.000000E+00   7.762640E+00   2.058294E+01   0.000000E+00   7.498758E+00   2.154402E+01   0.000000E+00   4.365447E+00   2.011253E+01   0.000000E+00   6.952651E+00   1.845559E+01   0.000000E+00   1.995584E-01   1.797734E+00   0.000000E+00   9.905437E-01   1.474929E+00   0.000000E+00   1.681358E+00   1.478292E+00   0.000000E+00   3.000005E+00   8.869320E-01   0.000000E+00   6.000021E+00   9.052101E-01   0.000000E+00   6.966538E+00   7.390152E+00   0.000000E+00   7.738355E+00   1.524776E+01   0.000000E+00   5.666457E+00   1.274380E+01   0.000000E+00   6.190341E+00   2.215390E+01   0.000000E+00   5.767768E+00   2.270794E+01   0.000000E+00   6.390218E+00   2.285552E+01   0.000000E+00   4.182629E+00   1.373360E+01   0.000000E+00   4.937910E+00   1.839616E+01   0.000000E+00   4.798888E+00   1.771390E+01   0.000000E+00   3.839480E+00   1.504770E+01   0.000000E+00   7.963882E+00   2.017774E+01   0.000000E+00   7.979161E+00   2.186110E+01   0.000000E+00   2.000916E-01   2.197567E+00   0.000000E+00   5.991011E-01   1.791424E+00   0.000000E+00   9.894605E-01   1.875511E+00   0.000000E+00   1.686377E+00   1.877504E+00   0.000000E+00   4.257571E+00   8.728599E-01   0.000000E+00   6.307894E+00   1.710203E+00   0.000000E+00   7.646375E+00   1.365635E+01   0.000000E+00   6.413764E+00   7.663814E+00   0.000000E+00   7.640141E+00   1.667922E+01   0.000000E+00   6.134040E+00   2.254875E+01   0.000000E+00   6.357108E+00   1.952814E+01   0.000000E+00   5.657997E+00   2.232401E+01   0.000000E+00   6.563989E+00   1.987926E+01   0.000000E+00   4.608147E+00   1.375703E+01   0.000000E+00   5.157218E+00   1.577837E+01   0.000000E+00   4.960443E+00   1.410044E+01   0.000000E+00   4.161812E+00   1.968905E+01   0.000000E+00   1.999117E-01   2.597272E+00   0.000000E+00   6.006461E-01   2.190310E+00   0.000000E+00   1.335497E+00   1.676310E+00   0.000000E+00   3.419526E+00   8.795749E-01   0.000000E+00   4.905573E+00   5.315279E-01   0.000000E+00   7.107487E+00   6.319216E+00   0.000000E+00   6.258718E+00   9.982582E+00   0.000000E+00   6.198702E+00   5.184678E+00   0.000000E+00   6.382281E+00   1.808190E+01   0.000000E+00   5.019752E+00   2.127802E+01   0.000000E+00   7.009511E+00   2.296701E+01   0.000000E+00   4.554757E+00   1.665532E+01   0.000000E+00   5.132402E+00   1.537524E+01   0.000000E+00   7.277195E+00   2.221026E+01   0.000000E+00   6.802669E+00   1.738866E+01   0.000000E+00   1.994138E-01   2.996796E+00   0.000000E+00   5.996171E-01   2.589030E+00   0.000000E+00   9.910588E-01   2.274907E+00   0.000000E+00   2.392302E+00   1.231853E+00   0.000000E+00   4.043995E+00   1.208744E+00   0.000000E+00   5.569321E+00   8.607851E-01   0.000000E+00   6.948689E+00   4.260259E+00   0.000000E+00   6.122984E+00   1.203208E+01   0.000000E+00   6.314705E+00   5.762511E+00   0.000000E+00   6.319605E+00   2.434248E+00   0.000000E+00   6.367257E+00   1.882833E+01   0.000000E+00   6.742759E+00   2.266958E+01   0.000000E+00   4.148706E+00   1.812990E+01   0.000000E+00   4.770057E+00   1.631998E+01   0.000000E+00   4.224482E+00   2.121210E+01   0.000000E+00   3.848376E+00   1.338669E+01   0.000000E+00   1.987810E-01   3.396231E+00   0.000000E+00   5.987307E-01   2.987784E+00   0.000000E+00   1.337986E+00   2.075682E+00   0.000000E+00   1.687735E+00   2.277773E+00   0.000000E+00   2.793399E+00   1.229248E+00   0.000000E+00   4.696804E+00   8.710829E-01   0.000000E+00   5.749762E+00   1.217994E+00   0.000000E+00   6.176325E+00   1.267299E+00   0.000000E+00   6.082473E+00   2.041068E+00   0.000000E+00   7.972744E+00   1.492165E+01   0.000000E+00   5.965896E+00   1.880609E+01   0.000000E+00   4.607847E+00   2.196376E+01   0.000000E+00   5.624488E+00   2.163041E+01   0.000000E+00   4.357110E+00   1.458435E+01   0.000000E+00   4.267633E+00   1.497991E+01   0.000000E+00   4.710999E+00   1.542793E+01   0.000000E+00   7.695282E+00   2.940282E+00   0.000000E+00   2.011576E-01   3.795904E+00   0.000000E+00   5.974432E-01   3.386968E+00   0.000000E+00   9.894632E-01   2.674567E+00   0.000000E+00   1.336033E+00   2.475444E+00   0.000000E+00   2.051685E+00   1.628161E+00   0.000000E+00   3.216818E+00   1.222235E+00   0.000000E+00   5.154598E+00   8.451265E-01   0.000000E+00   5.349406E+00   1.194902E+00   0.000000E+00   4.479875E+00   1.205541E+00   0.000000E+00   5.923205E+00   1.581164E+00   0.000000E+00   5.893370E+00   8.453489E+00   0.000000E+00   5.418727E+00   2.128269E+01   0.000000E+00   3.968034E+00   2.004523E+01  
[...]
<PointData Scalars="Diameter" Vectors="Velocity">
<DataArray type="Float32" Name="Diameter" format="ascii">
  4.000000E-01   4.000000E-01   4.000000E-01   4.000000E-01   4.000000E-01   4.000000E-01   4.000000E-01   4.000000E-01   4.000000E-01   4.000000E-01   4.000000E-01   4.000000E-01   4.000000E-01   4.000000E-01   4.000000E-01   4.000000E-01   4.000000E-01   4.000000E-01   4.000000E-01   4.000000E-01   4.000000E-01   4.000000E-01   4.000000E-01   4.000000E-01   4.000000E-01   4.000000E-01   4.000000E-01   4.000000E-01   4.000000E-01   4.000000E-01   4.000000E-01   4.000000E-01   4.000000E-01   4.000000E-01   4.000000E-01   4.000000E-01   4.000000E-01   4.000000E-01   4.000000E-01   4.000000E-01   4.000000E-01   4.000000E-01   4.000000E-01   4.000000E-01   4.000000E-01   4.000000E-01   4.000000E-01   4.000000E-01   4.000000E-01   4.000000E-01   4.000000E-01   4.000000E-01   4.000000E-01   4.000000E-01   4.000000E-01   4.000000E-01   4.000000E-01   4.000000E-01   4.000000E-01   4.000000E-01   4.000000E-01   4.000000E-01   4.000000E-01   4.000000E-01   4.000000E-01   4.000000E-01   4.000000E-01   4.000000E-01   4.000000E-01   4.000000E-01   4.000000E-01   4.000000E-01   4.000000E-01   4.000000E-01   4.000000E-01   4.000000E-01   4.000000E-01   4.000000E-01   4.000000E-01   4.000000E-01   4.000000E-01   4.000000E-01   4.000000E-01   4.000000E-01   4.000000E-01   4.000000E-01   4.000000E-01   4.000000E-01   4.000000E-01   4.000000E-01   4.000000E-01   4.000000E-01   4.000000E-01   4.000000E-01   4.000000E-01   4.000000E-01   4.000000E-01   4.000000E-01   4.000000E-01   4.000000E-01   4.000000E-01   4.000000E-01   4.000000E-01   4.000000E-01   4.000000E-01   4.000000E-01   4.000000E-01   4.000000E-01   4.000000E-01   4.000000E-01   4.000000E-01   4.000000E-01   4.000000E-01   4.000000E-01   4.000000E-01   4.000000E-01   4.000000E-01   4.000000E-01   4.000000E-01   4.000000E-01   4.000000E-01   4.000000E-01   4.000000E-01   4.000000E-01   4.000000E-01   4.000000E-01   4.000000E-01   4.000000E-01   4.000000E-01   4.000000E-01   4.000000E-01   4.000000E-01   4.000000E-01   4.000000E-01   4.000000E-01   4.000000E-01   4.000000E-01   4.000000E-01   4.000000E-01   4.000000E-01   4.000000E-01   4.000000E-01   4.000000E-01   4.000000E-01   4.000000E-01   4.000000E-01   4.000000E-01   4.000000E-01   4.000000E-01   4.000000E-01   4.000000E-01   4.000000E-01   4.000000E-01   4.000000E-01   4.000000E-01   4.000000E-01   4.000000E-01   4.000000E-01   4.000000E-01   4.000000E-01   4.000000E-01   4.000000E-01   4.000000E-01   4.000000E-01   4.000000E-01   4.000000E-01   4.000000E-01   4.000000E-01   4.000000E-01   4.000000E-01   4.000000E-01   4.000000E-01   4.000000E-01   4.000000E-01   4.000000E-01   4.000000E-01   4.000000E-01   4.000000E-01   4.000000E-01   4.000000E-01   4.000000E-01   4.000000E-01   4.000000E-01   4.000000E-01   4.000000E-01   4.000000E-01   4.000000E-01   4.000000E-01   4.000000E-01   4.000000E-01   4.000000E-01   4.000000E-01   4.000000E-01   4.000000E-01   4.000000E-01   4.000000E-01   4.000000E-01   4.000000E-01   4.000000E-01   4.000000E-01   4.000000E-01   4.000000E-01   4.000000E-01   4.000000E-01   4.000000E-01   4.000000E-01   4.000000E-01   4.000000E-01   4.000000E-01   4.000000E-01   4.000000E-01   4.000000E-01   4.000000E-01   4.000000E-01   4.000000E-01   4.000000E-01   4.000000E-01   4.000000E-01   4.000000E-01   4.000000E-01   4.000000E-01   4.000000E-01   4.000000E-01   4.000000E-01   4.000000E-01   4.000000E-01   4.000000E-01   4.000000E-01   4.000000E-01   4.000000E-01   4.000000E-01   4.000000E-01   4.000000E-01   4.000000E-01   4.000000E-01   4.000000E-01   4.000000E-01   4.000000E-01   4.000000E-01   4.000000E-01   4.000000E-01   4.000000E-01   4.000000E-01   4.000000E-01   4.000000E-01   4.000000E-01   4.000000E-01   4.000000E-01   4.000000E-01   4.000000E-01   4.000000E-01   4.000000E-01   4.000000E-01   4.000000E-01   4.000000E-01   4.000000E-01   4.000000E-01   4.000000E-01   4.000000E-01   4.000000E-01   4.000000E-01   4.000000E-01   4.000000E-01   4.000000E-01   4.000000E-01   4.000000E-01   4.000000E-01   4.000000E-01   4.000000E-01   4.000000E-01   4.000000E-01   4.000000E-01   4.000000E-01   4.000000E-01   4.000000E-01   4.000000E-01   4.000000E-01   4.000000E-01   4.000000E-01   4.000000E-01   4.000000E-01   4.000000E-01   4.000000E-01   4.000000E-01   4.000000E-01   4.000000E-01   4.000000E-01   4.000000E-01   4.000000E-01   4.000000E-01   4.000000E-01   4.000000E-01   4.000000E-01   4.000000E-01   4.000000E-01   4.000000E-01   4.000000E-01   4.000000E-01   4.000000E-01   4.000000E-01   4.000000E-01   4.000000E-01   4.000000E-01   4.000000E-01   4.000000E-01   4.000000E-01   4.000000E-01   4.000000E-01   4.000000E-01   4.000000E-01   4.000000E-01   4.000000E-01   4.000000E-01   4.000000E-01   4.000000E-01   4.000000E-01   4.000000E-01   4.000000E-01   4.000000E-01   4.000000E-01   4.000000E-01   4.000000E-01   4.000000E-01   4.000000E-01   4.000000E-01   4.000000E-01   4.000000E-01   4.000000E-01   4.000000E-01   4.000000E-01   4.000000E-01   4.000000E-01   4.000000E-01   4.000000E-01   4.000000E-01   4.000000E-01   4.000000E-01   4.000000E-01   4.000000E-01   4.000000E-01   4.000000E-01   4.000000E-01   4.000000E-01   4.000000E-01   4.000000E-01   4.000000E-01   4.000000E-01   4.000000E-01   4.000000E-01   4.000000E-01   4.000000E-01   4.000000E-01   4.000000E-01   4.000000E-01   4.000000E-01   4.000000E-01   4.000000E-01   4.000000E-01   4.000000E-01   4.000000E-01   4.000000E-01   4.000000E-01   4.000000E-01   4.000000E-01   4.000000E-01   4.000000E-01   4.000000E-01   4.000000E-01   4.000000E-01   4.000000E-01   4.000000E-01   4.000000E-01   4.000000E-01   4.000000E-01   4.000000E-01   4.000000E-01   4.000000E-01   4.000000E-01   4.000000E-01   4.000000E-01   4.000000E-01   4.000000E-01   4.000000E-01   4.000000E-01   4.000000E-01   4.000000E-01   4.000000E-01   4.000000E-01   4.000000E-01   4.000000E-01   4.000000E-01   4.000000E-01   4.000000E-01   4.000000E-01   4.000000E-01   4.000000E-01   4.000000E-01   4.000000E-01   4.000000E-01   4.000000E-01   4.000000E-01   4.000000E-01   4.000000E-01   4.000000E-01   4.000000E-01   4.000000E-01   4.000000E-01   4.000000E-01   4.000000E-01   4.000000E-01   4.000000E-01   4.000000E-01   4.000000E-01   4.000000E-01   4.000000E-01   4.000000E-01   4.000000E-01   4.000000E-01   4.000000E-01   4.000000E-01   4.000000E-01   4.000000E-01   4.000000E-01   4.000000E-01   4.000000E-01   4.000000E-01   4.000000E-01   4.000000E-01   4.000000E-01   4.000000E-01   4.000000E-01   4.000000E-01   4.000000E-01   4.000000E-01   4.000000E-01   4.000000E-01   4.000000E-01   4.000000E-01   4.000000E-01   4.000000E-01   4.000000E-01   4.000000E-01   4.000000E-01   4.000000E-01   4.000000E-01   4.000000E-01   4.000000E-01   4.000000E-01   4.000000E-01   4.000000E-01   4.000000E-01   4.000000E-01   4.000000E-01   4.000000E-01   4.000000E-01   4.000000E-01   4.000000E-01   4.000000E-01   4.000000E-01   4.000000E-01   4.000000E-01   4.000000E-01   4.000000E-01   4.000000E-01   4.000000E-01   4.000000E-01   4.000000E-01   4.000000E-01   4.000000E-01   4.000000E-01   4.000000E-01   4.000000E-01   4.000000E-01   4.000000E-01   4.000000E-01   4.000000E-01   4.000000E-01   4.000000E-01   4.000000E-01   4.000000E-01   4.000000E-01   4.000000E-01   4.000000E-01   4.000000E-01   4.000000E-01   4.000000E-01   4.000000E-01   4.000000E-01   4.000000E-01   4.000000E-01   4.000000E-01   4.000000E-01   4.000000E-01   4.000000E-01   4.000000E-01   4.000000E-01   4.000000E-01   4.000000E-01   4.000000E-01   4.000000E-01   4.000000E-01   4.000000E-01   4.000000E-01   4.000000E-01   4.000000E-01   4.000000E-01   4.000000E-01   4.000000E-01   4.000000E-01   4.000000E-01   4.000000E-01   4.000000E-01   4.000000E-01   4.000000E-01   4.000000E-01   4.000000E-01   4.000000E-01   4.000000E-01   4.000000E-01   4.000000E-01   4.000000E-01   4.000000E-01   4.000000E-01   4.000000E-01   4.000000E-01   4.000000E-01   4.000000E-01   4.000000E-01   4.000000E-01   4.000000E-01   4.000000E-01   4.000000E-01   4.000000E-01   4.000000E-01   4.000000E-01   4.000000E-01   4.000000E-01   4.000000E-01   4.000000E-01   4.000000E-01   4.000000E-01   4.000000E-01   4.000000E-01   4.000000E-01   4.000000E-01   4.000000E-01   4.000000E-01   4.000000E-01   4.000000E-01   4.000000E-01   4.000000E-01   4.000000E-01   4.000000E-01   4.000000E-01   4.000000E-01   4.000000E-01   4.000000E-01   4.000000E-01   4.000000E-01   4.000000E-01   4.000000E-01   4.000000E-01   4.000000E-01   4.000000E-01   4.000000E-01   4.000000E-01   4.000000E-01   4.000000E-01   4.000000E-01   4.000000E-01   4.000000E-01   4.000000E-01   4.000000E-01   4.000000E-01   4.000000E-01   4.000000E-01   4.000000E-01   4.000000E-01   4.000000E-01   4.000000E-01   4.000000E-01   4.000000E-01   4.000000E-01   4.000000E-01   4.000000E-01   4.000000E-01   4.000000E-01   4.000000E-01   4.000000E-01   4.000000E-01   4.000000E-01   4.000000E-01   4.000000E-01   4.000000E-01   4.000000E-01   4.000000E-01   4.000000E-01   4.000000E-01   4.000000E-01   4.000000E-01   4.000000E-01   4.000000E-01   4.000000E-01   4.000000E-01   4.000000E-01   4.000000E-01   4.000000E-01   4.000000E-01   4.000000E-01   4.000000E-01   4.000000E-01   4.000000E-01   4.000000E-01   4.000000E-01   4.000000E-01   4.000000E-01   4.000000E-01   4.000000E-01   4.000000E-01   4.000000E-01   4.000000E-01   4.000000E-01   4.000000E-01   4.000000E-01   4.000000E-01   4.000000E-01   4.000000E-01   4.000000E-01   4.000000E-01   4.000000E-01   4.000000E-01   4.000000E-01   4.000000E-01   4.000000E-01   4.000000E-01   4.000000E-01   4.000000E-01   4.000000E-01   4.000000E-01   4.000000E-01   4.000000E-01   4.000000E-01   4.000000E-01   4.000000E-01   4.000000E-01   4.000000E-01   4.000000E-01   4.000000E-01   4.000000E-01   4.000000E-01   4.000000E-01   4.000000E-01   4.000000E-01   4.000000E-01   4.000000E-01   4.000000E-01   4.000000E-01   4.000000E-01   4.000000E-01   4.000000E-01   4.000000E-01   4.000000E-01   4.000000E-01   4.000000E-01   4.000000E-01   4.000000E-01   4.000000E-01   4.000000E-01   4.000000E-01   4.000000E-01   4.000000E-01   4.000000E-01   4.000000E-01   4.000000E-01   4.000000E-01   4.000000E-01   4.000000E-01   4.000000E-01   4.000000E-01   4.000000E-01   4.000000E-01   4.000000E-01   4.000000E-01   4.000000E-01   4.000000E-01   4.000000E-01   4.000000E-01   4.000000E-01   4.000000E-01   4.000000E-01   4.000000E-01   4.000000E-01   4.000000E-01   4.000000E-01   4.000000E-01   4.000000E-01   4.000000E-01   4.000000E-01   4.000000E-01   4.000000E-01   4.000000E-01   4.000000E-01   4.000000E-01   4.000000E-01   4.000000E-01   4.000000E-01   4.000000E-01   4.000000E-01   4.000000E-01   4.000000E-01   4.000000E-01   4.000000E-01   4.000000E-01   4.000000E-01   4.000000E-01   4.000000E-01   4.000000E-01   4.000000E-01   4.000000E-01   4.000000E-01   4.000000E-01   4.000000E-01   4.000000E-01   4.000000E-01   4.000000E-01   4.000000E-01   4.000000E-01   4.000000E-01   4.000000E-01   4.000000E-01   4.000000E-01   4.000000E-01   4.000000E-01   4.000000E-01   4.000000E-01   4.000000E-01   4.000000E-01   4.000000E-01   4.000000E-01   4.000000E-01   4.000000E-01   4.000000E-01   4.000000E-01   4.000000E-01   4.000000E-01   4.000000E-01   4.000000E-01   4.000000E-01   4.000000E-01   4.000000E-01   4.000000E-01   4.000000E-01   4.000000E-01   4.000000E-01   4.000000E-01   4.000000E-01   4.000000E-01   4.000000E-01   4.000000E-01   4.000000E-01   4.000000E-01   4.000000E-01   4.000000E-01   4.000000E-01   4.000000E-01   4.000000E-01   4.000000E-01   4.000000E-01   4.000000E-01   4.000000E-01   4.000000E-01   4.000000E-01   4.000000E-01   4.000000E-01   4.000000E-01   4.000000E-01   4.000000E-01   4.000000E-01   4.000000E-01   4.000000E-01   4.000000E-01   4.000000E-01   4.000000E-01   4.000000E-01   4.000000E-01   4.000000E-01   4.000000E-01   4.000000E-01   4.000000E-01   4.000000E-01   4.000000E-01   4.000000E-01   4.000000E-01   4.000000E-01   4.000000E-01   4.000000E-01   4.000000E-01   4.000000E-01   4.000000E-01   4.000000E-01   4.000000E-01   4.000000E-01   4.000000E-01   4.000000E-01   4.000000E-01   4.000000E-01   4.000000E-01   4.000000E-01   4.000000E-01   4.000000E-01   4.000000E-01   4.000000E-01   4.000000E-01   4.000000E-01   4.000000E-01   4.000000E-01   4.000000E-01   4.000000E-01   4.000000E-01   4.000000E-01   4.000000E-01   4.000000E-01   4.000000E-01   4.000000E-01   4.000000E-01   4.000000E-01   4.000000E-01   4.000000E-01   4.000000E-01   4.000000E-01   4.000000E-01   4.000000E-01   4.000000E-01   4.000000E-01   4.000000E-01   4.000000E-01   4.000000E-01   4.000000E-01   4.000000E-01   4.000000E-01   4.000000E-01   4.000000E-01   4.000000E-01   4.000000E-01   4.000000E-01   4.000000E-01   4.000000E-01   4.000000E-01   4.000000E-01   4.000000E-01   4.000000E-01   4.000000E-01   4.000000E-01   4.000000E-01   4.000000E-01   4.000000E-01   4.000000E-01   4.000000E-01   4.000000E-01   4.000000E-01   4.000000E-01   4.000000E-01   4.000000E-01   4.000000E-01   4.000000E-01   4.000000E-01   4.000000E-01   4.000000E-01   4.000000E-01   4.000000E-01   4.000000E-01   4.000000E-01   4.000000E-01   4.000000E-01   4.000000E-01   4.000000E-01   4.000000E-01   4.000000E-01   4.000000E-01   4.000000E-01   4.000000E-01   4.000000E-01   4.000000E-01   4.000000E-01   4.000000E-01   4.000000E-01   4.000000E-01   4.000000E-01   4.000000E-01   4.000000E-01   4.000000E-01   4.000000E-01   4.000000E-01   4.000000E-01   4.000000E-01   4.000000E-01   4.000000E-01   4.000000E-01   4.000000E-01   4.000000E-01   4.000000E-01   4.000000E-01   4.000000E-01   4.000000E-01   4.000000E-01   4.000000E-01   4.000000E-01   4.000000E-01   4.000000E-01   4.000000E-01   4.000000E-01   4.000000E-01   4.000000E-01   4.000000E-01   4.000000E-01   4.000000E-01   4.000000E-01   4.000000E-01   4.000000E-01   4.000000E-01   4.000000E-01   4.000000E-01   4.000000E-01   4.000000E-01   4.000000E-01   4.000000E-01   4.000000E-01   4.000000E-01   4.000000E-01   4.000000E-01   4.000000E-01   4.000000E-01   4.000000E-01   4.000000E-01   4.000000E-01   4.000000E-01   4.000000E-01   4.000000E-01   4.000000E-01   4.000000E-01   4.000000E-01   4.000000E-01   4.000000E-01   4.000000E-01   4.000000E-01   4.000000E-01   4.000000E-01   4.000000E-01   4.000000E-01   4.000000E-01   4.000000E-01   4.000000E-01   4.000000E-01   4.000000E-01   4.000000E-01   4.000000E-01   4.000000E-01   4.000000E-01   4.000000E-01   4.000000E-01   4.000000E-01   4.000000E-01   4.000000E-01   4.000000E-01   4.000000E-01   4.000000E-01   4.000000E-01   4.000000E-01   4.000000E-01   4.000000E-01   4.000000E-01   4.000000E-01   4.000000E-01   4.000000E-01   4.000000E-01   4.000000E-01   4.000000E-01   4.000000E-01   4.000000E-01   4.000000E-01   4.000000E-01   4.000000E-01   4.000000E-01   4.000000E-01   4.000000E-01   4.000000E-01   4.000000E-01   4.000000E-01   4.000000E-01   4.000000E-01   4.000000E-01   4.000000E-01   4.000000E-01   4.000000E-01   4.000000E-01   4.000000E-01   4.000000E-01   4.000000E-01   4.000000E-01   4.000000E-01   4.000000E-01   4.000000E-01   4.000000E-01   4.000000E-01   4.000000E-01   4.000000E-01   4.000000E-01   4.000000E-01   4.000000E-01   4.000000E-01   4.000000E-01   4.000000E-01   4.000000E-01   4.000000E-01   4.000000E-01   4.000000E-01   4.000000E-01   4.000000E-01   4.000000E-01   4.000000E-01   4.000000E-01   4.000000E-01   4.000000E-01   4.000000E-01   4.000000E-01   4.000000E-01   4.000000E-01   4.000000E-01   4.000000E-01   4.000000E-01   4.000000E-01   4.000000E-01   4.000000E-01   4.000000E-01   4.000000E-01   4.000000E-01   4.000000E-01   4.000000E-01   4.000000E-01   4.000000E-01   4.000000E-01   4.000000E-01   4.000000E-01   4.000000E-01   4.000000E-01   4.000000E-01   4.000000E-01   4.000000E-01   4.000000E-01   4.000000E-01   4.000000E-01   4.000000E-01   4.000000E-01   4.000000E-01   4.000000E-01   4.000000E-01   4.000000E-01   4.000000E-01   4.000000E-01   4.000000E-01   4.000000E-01   4.000000E-01   4.000000E-01   4.000000E-01   4.000000E-01   4.000000E-01   4.000000E-01   4.000000E-01   4.000000E-01   4.000000E-01   4.000000E-01   4.000000E-01   4.000000E-01   4.000000E-01   4.000000E-01   4.000000E-01   4.000000E-01   4.000000E-01   4.000000E-01   4.000000E-01   4.000000E-01   4.000000E-01   4.000000E-01   4.000000E-01   4.000000E-01   4.000000E-01   4.000000E-01   4.000000E-01   4.000000E-01   4.000000E-01   4.000000E-01   4.000000E-01   4.000000E-01   4.000000E-01   4.000000E-01   4.000000E-01   4.000000E-01   4.000000E-01   4.000000E-01   4.000000E-01   4.000000E-01   4.000000E-01   4.000000E-01   4.000000E-01   4.000000E-01   4.000000E-01   4.000000E-01   4.000000E-01   4.000000E-01   4.000000E-01   4.000000E-01   4.000000E-01   4.000000E-01   4.000000E-01   4.000000E-01   4.000000E-01   4.000000E-01   4.000000E-01   4.000000E-01   4.000000E-01   4.000000E-01   4.000000E-01   4.000000E-01   4.000000E-01   4.000000E-01   4.000000E-01   4.000000E-01   4.000000E-01   4.000000E-01   4.000000E-01   4.000000E-01   4.000000E-01   4.000000E-01   4.000000E-01   4.000000E-01   4.000000E-01   4.000000E-01   4.000000E-01   4.000000E-01   4.000000E-01   4.000000E-01   4.000000E-01   4.000000E-01   4.000000E-01   4.000000E-01   4.000000E-01   4.000000E-01   4.000000E-01   4.000000E-01   4.000000E-01   4.000000E-01   4.000000E-01   4.000000E-01   4.000000E-01   4.000000E-01   4.000000E-01   4.000000E-01   4.000000E-01   4.000000E-01   4.000000E-01   4.000000E-01   4.000000E-01   4.000000E-01   4.000000E-01   4.000000E-01   4.000000E-01   4.000000E-01   4.000000E-01   4.000000E-01   4.000000E-01   4.000000E-01   4.000000E-01   4.000000E-01   4.000000E-01   4.000000E-01   4.000000E-01   4.000000E-01   4.000000E-01   4.000000E-01   4.000000E-01   4.000000E-01   4.000000E-01   4.000000E-01   4.000000E-01   4.000000E-01   4.000000E-01   4.000000E-01   4.000000E-01   4.000000E-01   4.000000E-01   4.000000E-01   4.000000E-01   4.000000E-01   4.000000E-01   4.000000E-01   4.000000E-01   4.000000E-01   4.000000E-01   4.000000E-01   4.000000E-01   4.000000E-01   4.000000E-01   4.000000E-01   4.000000E-01   4.000000E-01   4.000000E-01   4.000000E-01   4.000000E-01   4.000000E-01   4.000000E-01   4.000000E-01   4.000000E-01   4.000000E-01   4.000000E-01   4.000000E-01   4.000000E-01   4.000000E-01   4.000000E-01   4.000000E-01   4.000000E-01   4.000000E-01   4.000000E-01   4.000000E-01   4.000000E-01   4.000000E-01   4.000000E-01   4.000000E-01   4.000000E-01   4.000000E-01   4.000000E-01   4.000000E-01   4.000000E-01   4.000000E-01   4.000000E-01   4.000000E-01   4.000000E-01   4.000000E-01   4.000000E-01   4.000000E-01   4.000000E-01   4.000000E-01   4.000000E-01   4.000000E-01   4.000000E-01   4.000000E-01   4.000000E-01   4.000000E-01   4.000000E-01   4.000000E-01   4.000000E-01   4.000000E-01   4.000000E-01   4.000000E-01   4.000000E-01   4.000000E-01   4.000000E-01   4.000000E-01   4.000000E-01   4.000000E-01   4.000000E-01   4.000000E-01   4.000000E-01   4.000000E-01   4.000000E-01   4.000000E-01   4.000000E-01   4.000000E-01   4.000000E-01   4.000000E-01   4.000000E-01   4.000000E-01   4.000000E-01   4.000000E-01   4.000000E-01   4.000000E-01   4.000000E-01   4.000000E-01   4.000000E-01   4.000000E-01   4.000000E-01   4.000000E-01   4.000000E-01   4.000000E-01   4.000000E-01   4.000000E-01   4.000000E-01   4.000000E-01   4.000000E-01   4.000000E-01   4.000000E-01   4.000000E-01   4.000000E-01   4.000000E-01   4.000000E-01   4.000000E-01   4.000000E-01   4.000000E-01   4.000000E-01   4.000000E-01   4.000000E-01   4.000000E-01   4.000000E-01   4.000000E-01   4.000000E-01   4.000000E-01   4.000000E-01   4.000000E-01   4.000000E-01   4.000000E-01   4.000000E-01   4.000000E-01   4.000000E-01   4.000000E-01   4.000000E-01   4.000000E-01   4.000000E-01   4.000000E-01   4.000000E-01   4.000000E-01   4.000000E-01   4.000000E-01   4.000000E-01   4.000000E-01   4.000000E-01   4.000000E-01   4.000000E-01   