<?xml version="1.0"?>
<!-- Time =  5.9999029269476922E-01s -->
<VTKFile type="PolyData" version="0.1" byte_order="LittleEndian">
<PolyData>
<Piece NumberOfPoints="0000002400" NumberOfVerts="0" NumberOfLines="0" NumberOfStrips="0" NumberOfPolys="0">
<Points>
<DataArray type="Float32" Name="Position" NumberOfComponents="3" format="ascii">
  1.270954E+00   1.982021E-01   0.000000E+00   2.069665E+00   1.990606E-01   0.000000E+00   2.968246E+00   1.985209E-01   0.000000E+00   3.380434E+00   1.990506E-01   0.000000E+00   5.254381E+00   1.998211E-01   0.000000E+00   5.655030E+00   1.995682E-01   0.000000E+00   6.464668E+00   2.257998E-01   0.000000E+00   3.638453E+00   1.110189E+01   0.000000E+00   4.121825E+00   1.015033E+01   0.000000E+00   3.933503E+00   1.500363E+01   0.000000E+00   5.799351E+00   1.811984E+01   0.000000E+00   5.862428E+00   5.090054E+00   0.000000E+00   2.134270E-01   1.984585E-01   0.000000E+00   1.670101E+00   1.995749E-01   0.000000E+00   2.469336E+00   1.986311E-01   0.000000E+00   3.173684E+00   5.408440E-01   0.000000E+00   4.421781E+00   1.983518E-01   0.000000E+00   5.454323E+00   5.479945E-01   0.000000E+00   6.059134E+00   1.998983E-01   0.000000E+00   6.879836E+00   9.655678E+00   0.000000E+00   7.630232E+00   1.449621E+01   0.000000E+00   4.349901E+00   1.576016E+01   0.000000E+00   4.285711E+00   1.424597E+01   0.000000E+00   4.326432E+00   1.493455E+01   0.000000E+00   7.845378E+00   1.197649E+01   0.000000E+00   3.689137E+00   1.190022E+01   0.000000E+00   6.715149E+00   1.385809E+01   0.000000E+00   4.203190E+00   1.293697E+01   0.000000E+00   6.131074E-01   1.992980E-01   0.000000E+00   1.870132E+00   5.452602E-01   0.000000E+00   2.269802E+00   5.447161E-01   0.000000E+00   3.853734E+00   1.988574E-01   0.000000E+00   4.854187E+00   1.993012E-01   0.000000E+00   5.854641E+00   5.468715E-01   0.000000E+00   6.764726E+00   6.238616E+00   0.000000E+00   7.505579E+00   1.270878E+01   0.000000E+00   4.129911E+00   1.254236E+01   0.000000E+00   7.993206E+00   9.735685E+00   0.000000E+00   7.951586E+00   1.077968E+01   0.000000E+00   4.074631E+00   1.177326E+01   0.000000E+00   5.452987E+00   1.623593E+01   0.000000E+00   4.010788E+00   1.095020E+01   0.000000E+00   7.340185E+00   1.664307E+01   0.000000E+00   1.990270E-01   5.966932E-01   0.000000E+00   9.430701E-01   4.244547E-01   0.000000E+00   1.668857E+00   8.900487E-01   0.000000E+00   2.718837E+00   5.102661E-01   0.000000E+00   4.138300E+00   4.793352E-01   0.000000E+00   5.053716E+00   5.458241E-01   0.000000E+00   7.002515E+00   3.450363E+00   0.000000E+00   6.961524E+00   1.420130E+01   0.000000E+00   7.936141E+00   1.808557E+01   0.000000E+00   4.693668E+00   1.839375E+01   0.000000E+00   4.601688E+00   1.452313E+01   0.000000E+00   4.403553E+00   1.126054E+01   0.000000E+00   5.123008E+00   1.210760E+01   0.000000E+00   5.626888E+00   1.532895E+01   0.000000E+00   7.906851E+00   1.266959E+01   0.000000E+00   5.973563E-01   6.241516E-01   0.000000E+00   1.457588E+00   5.510336E-01   0.000000E+00   2.069274E+00   8.936803E-01   0.000000E+00   3.617782E+00   5.205864E-01   0.000000E+00   4.636754E+00   5.346186E-01   0.000000E+00   6.673300E+00   8.037611E-01   0.000000E+00   7.225420E+00   4.215373E+00   0.000000E+00   7.235487E+00   1.809093E+01   0.000000E+00   7.232442E+00   1.848989E+01   0.000000E+00   4.463230E+00   1.166475E+01   0.000000E+00   5.280507E+00   1.260798E+01   0.000000E+00   4.876141E+00   1.242336E+01   0.000000E+00   4.511261E+00   1.663399E+01   0.000000E+00   3.983441E+00   1.397112E+01   0.000000E+00   4.076775E+00   1.462164E+01   0.000000E+00   2.000470E-01   9.953749E-01   0.000000E+00   9.445374E-01   8.234944E-01   0.000000E+00   1.291509E+00   1.022004E+00   0.000000E+00   2.519193E+00   8.561984E-01   0.000000E+00   3.410948E+00   8.618890E-01   0.000000E+00   6.253919E+00   5.664371E-01   0.000000E+00   6.760986E+00   4.455371E+00   0.000000E+00   7.182638E+00   1.701141E+01   0.000000E+00   7.860926E+00   1.730154E+01   0.000000E+00   7.585429E+00   1.868528E+01   0.000000E+00   5.856501E+00   1.967488E+01   0.000000E+00   6.245192E+00   1.956291E+01   0.000000E+00   5.432946E+00   1.185444E+01   0.000000E+00   5.275987E+00   1.140042E+01   0.000000E+00   5.104184E+00   1.593709E+01   0.000000E+00   5.987571E-01   1.023759E+00   0.000000E+00   9.454970E-01   1.223050E+00   0.000000E+00   1.809753E+00   1.263637E+00   0.000000E+00   2.923864E+00   8.527402E-01   0.000000E+00   5.649860E+00   8.976128E-01   0.000000E+00   6.445143E+00   1.132360E+00   0.000000E+00   7.599094E+00   8.046872E+00   0.000000E+00   7.202334E+00   1.454525E+01   0.000000E+00   7.264539E+00   1.346103E+01   0.000000E+00   7.632095E+00   1.782217E+01   0.000000E+00   7.304533E+00   1.935808E+01   0.000000E+00   4.723469E+00   1.613087E+01   0.000000E+00   4.481946E+00   1.873765E+01   0.000000E+00   7.519350E+00   1.380976E+01   0.000000E+00   1.997080E-01   1.393718E+00   0.000000E+00   5.984161E-01   1.423148E+00   0.000000E+00   1.292486E+00   1.421897E+00   0.000000E+00   2.324438E+00   1.204731E+00   0.000000E+00   3.902095E+00   8.012159E-01   0.000000E+00   6.053207E+00   9.121369E-01   0.000000E+00   6.615527E+00   2.112577E+00   0.000000E+00   6.212459E+00   1.743365E+01   0.000000E+00   7.079178E+00   1.560543E+01   0.000000E+00   7.904699E+00   1.622262E+01   0.000000E+00   7.453698E+00   5.662071E+00   0.000000E+00   5.426197E+00   1.454942E+01   0.000000E+00   4.726480E+00   1.706023E+01   0.000000E+00   7.454284E+00   1.485585E+01   0.000000E+00   1.997482E-01   1.792001E+00   0.000000E+00   9.447116E-01   1.622679E+00   0.000000E+00   1.639063E+00   1.625045E+00   0.000000E+00   2.724136E+00   1.198796E+00   0.000000E+00   5.251271E+00   8.932902E-01   0.000000E+00   6.243749E+00   1.477813E+00   0.000000E+00   7.634264E+00   1.162594E+01   0.000000E+00   6.458090E+00   9.220459E+00   0.000000E+00   6.859324E+00   1.864381E+01   0.000000E+00   6.253368E+00   1.915093E+01   0.000000E+00   6.954194E+00   1.916434E+01   0.000000E+00   4.385437E+00   1.220460E+01   0.000000E+00   5.218410E+00   1.554819E+01   0.000000E+00   5.107615E+00   1.516101E+01   0.000000E+00   3.869501E+00   1.358327E+01   0.000000E+00   1.994096E-01   2.190611E+00   0.000000E+00   5.982319E-01   1.822587E+00   0.000000E+00   9.443424E-01   2.022341E+00   0.000000E+00   1.637131E+00   2.024782E+00   0.000000E+00   3.695206E+00   1.142583E+00   0.000000E+00   5.831759E+00   1.261504E+00   0.000000E+00   7.471640E+00   8.766551E+00   0.000000E+00   5.938880E+00   3.710186E+00   0.000000E+00   7.736775E+00   1.303973E+01   0.000000E+00   6.610470E+00   1.896255E+01   0.000000E+00   6.889136E+00   1.597794E+01   0.000000E+00   6.273994E+00   1.875071E+01   0.000000E+00   7.106741E+00   1.631389E+01   0.000000E+00   4.796410E+00   1.134759E+01   0.000000E+00   4.940115E+00   1.323381E+01   0.000000E+00   5.003620E+00   1.169583E+01   0.000000E+00   4.048895E+00   1.742890E+01   0.000000E+00   1.995529E-01   2.589430E+00   0.000000E+00   5.979566E-01   2.222128E+00   0.000000E+00   1.291122E+00   1.822103E+00   0.000000E+00   3.161747E+00   1.173408E+00   0.000000E+00   4.353309E+00   8.163556E-01   0.000000E+00   6.318777E+00   2.756693E+00   0.000000E+00   6.404855E+00   5.133247E+00   0.000000E+00   5.613548E+00   3.942182E+00   0.000000E+00   6.802515E+00   1.456857E+01   0.000000E+00   5.599129E+00   1.777686E+01   0.000000E+00   7.597665E+00   1.908837E+01   0.000000E+00   4.975365E+00   1.436865E+01   0.000000E+00   4.608603E+00   1.347586E+01   0.000000E+00   7.929733E+00   1.848505E+01   0.000000E+00   7.118907E+00   1.383381E+01   0.000000E+00   1.994571E-01   2.988209E+00   0.000000E+00   5.977224E-01   2.621666E+00   0.000000E+00   9.442212E-01   2.422152E+00   0.000000E+00   2.101960E+00   1.536120E+00   0.000000E+00   3.445642E+00   1.454286E+00   0.000000E+00   4.835375E+00   8.810682E-01   0.000000E+00   5.969130E+00   1.767452E+00   0.000000E+00   6.666078E+00   5.718180E+00   0.000000E+00   6.215531E+00   2.095867E+00   0.000000E+00   5.699715E+00   2.062329E+00   0.000000E+00   6.865215E+00   1.526950E+01   0.000000E+00   7.245541E+00   1.889239E+01   0.000000E+00   4.087938E+00   1.661812E+01   0.000000E+00   4.704175E+00   1.391229E+01   0.000000E+00   4.906874E+00   1.804427E+01   0.000000E+00   3.984426E+00   1.216922E+01   0.000000E+00   1.992205E-01   3.386709E+00   0.000000E+00   5.974582E-01   3.021343E+00   0.000000E+00   1.290233E+00   2.222305E+00   0.000000E+00   1.656597E+00   2.424242E+00   0.000000E+00   2.529452E+00   1.548162E+00   0.000000E+00   4.116626E+00   1.138401E+00   0.000000E+00   5.032505E+00   1.228608E+00   0.000000E+00   5.431950E+00   1.250062E+00   0.000000E+00   5.581851E+00   1.627568E+00   0.000000E+00   7.881070E+00   1.129485E+01   0.000000E+00   6.466406E+00   1.529640E+01   0.000000E+00   5.298522E+00   1.874588E+01   0.000000E+00   6.226949E+00   1.813750E+01   0.000000E+00   4.523055E+00   1.262340E+01   0.000000E+00   4.219492E+00   1.336697E+01   0.000000E+00   4.326480E+00   1.375263E+01   0.000000E+00   1.991924E-01   3.785094E+00   0.000000E+00   5.970833E-01   3.420759E+00   0.000000E+00   9.436675E-01   2.821706E+00   0.000000E+00   1.292683E+00   2.622161E+00   0.000000E+00   2.024497E+00   1.927588E+00   0.000000E+00   2.962426E+00   1.518798E+00   0.000000E+00   4.552067E+00   1.163586E+00   0.000000E+00   4.745081E+00   1.514847E+00   0.000000E+00   3.908628E+00   1.479833E+00   0.000000E+00   5.181110E+00   1.599486E+00   0.000000E+00   6.450140E+00   3.397705E+00   0.000000E+00   6.023486E+00   1.778934E+01   0.000000E+00   4.444116E+00   1.734486E+01   0.000000E+00   4.344372E+00   1.534805E+01   0.000000E+00   4.731776E+00   1.200237E+01   0.000000E+00   5.526347E+00   1.907311E+01   0.000000E+00   3.873116E+00   1.316762E+01   0.000000E+00   1.994808E-01   4.184139E+00   0.000000E+00   5.967953E-01   3.820732E+00   0.000000E+00   9.431753E-01   3.221396E+00  
[...]
<PointData Scalars="Diameter" Vectors="Velocity">
<DataArray type="Float32" Name="Diameter" format="ascii">
  4.000000E-01   4.000000E-01   4.000000E-01   4.000000E-01   4.000000E-01   4.000000E-01   4.000000E-01   4.000000E-01   4.000000E-01   4.000000E-01   4.000000E-01   4.000000E-01   4.000000E-01   4.000000E-01   4.000000E-01   4.000000E-01   4.000000E-01   4.000000E-01   4.000000E-01   4.000000E-01   4.000000E-01   4.000000E-01   4.000000E-01   4.000000E-01   4.000000E-01   4.000000E-01   4.000000E-01   4.000000E-01   4.000000E-01   4.000000E-01   4.000000E-01   4.000000E-01   4.000000E-01   4.000000E-01   4.000000E-01   4.000000E-01   4.000000E-01   4.000000E-01   4.000000E-01   4.000000E-01   4.000000E-01   4.000000E-01   4.000000E-01   4.000000E-01   4.000000E-01   4.000000E-01   4.000000E-01   4.000000E-01   4.000000E-01   4.000000E-01   4.000000E-01   4.000000E-01   4.000000E-01   4.000000E-01   4.000000E-01   4.000000E-01   4.000000E-01   4.000000E-01   4.000000E-01   4.000000E-01   4.000000E-01   4.000000E-01   4.000000E-01   4.000000E-01   4.000000E-01   4.000000E-01   4.000000E-01   4.000000E-01   4.000000E-01   4.000000E-01   4.000000E-01   4.000000E-01   4.000000E-01   4.000000E-01   4.000000E-01   4.000000E-01   4.000000E-01   4.000000E-01   4.000000E-01   4.000000E-01   4.000000E-01   4.000000E-01   4.000000E-01   4.000000E-01   4.000000E-01   4.000000E-01   4.000000E-01   4.000000E-01   4.000000E-01   4.000000E-01   4.000000E-01   4.000000E-01   4.000000E-01   4.000000E-01   4.000000E-01   4.000000E-01   4.000000E-01   4.000000E-01   4.000000E-01   4.000000E-01   4.000000E-01   4.000000E-01   4.000000E-01   4.000000E-01   4.000000E-01   4.000000E-01   4.000000E-01   4.000000E-01   4.000000E-01   4.000000E-01   4.000000E-01   4.000000E-01   4.000000E-01   4.000000E-01   4.000000E-01   4.000000E-01   4.000000E-01   4.000000E-01   4.000000E-01   4.000000E-01   4.000000E-01   4.000000E-01   4.000000E-01   4.000000E-01   4.000000E-01   4.000000E-01   4.000000E-01   4.000000E-01   4.000000E-01   4.000000E-01   4.000000E-01   4.000000E-01   4.000000E-01   4.000000E-01   4.000000E-01   4.000000E-01   4.000000E-01   4.000000E-01   4.000000E-01   4.000000E-01   4.000000E-01   4.000000E-01   4.000000E-01   4.000000E-01   4.000000E-01   4.000000E-01   4.000000E-01   4.000000E-01   4.000000E-01   4.000000E-01   4.000000E-01   4.000000E-01   4.000000E-01   4.000000E-01   4.000000E-01   4.000000E-01   4.000000E-01   4.000000E-01   4.000000E-01   4.000000E-01   4.000000E-01   4.000000E-01   4.000000E-01   4.000000E-01   4.000000E-01   4.000000E-01   4.000000E-01   4.000000E-01   4.000000E-01   4.000000E-01   4.000000E-01   4.000000E-01   4.000000E-01   4.000000E-01   4.000000E-01   4.000000E-01   4.000000E-01   4.000000E-01   4.000000E-01   4.000000E-01   4.000000E-01   4.000000E-01   4.000000E-01   4.000000E-01   4.000000E-01   4.000000E-01   4.000000E-01   4.000000E-01   4.000000E-01   4.000000E-01   4.000000E-01   4.000000E-01   4.000000E-01   4.000000E-01   4.000000E-01   4.000000E-01   4.000000E-01   4.000000E-01   4.000000E-01   4.000000E-01   4.000000E-01   4.000000E-01   4.000000E-01   4.000000E-01   4.000000E-01   4.000000E-01   4.000000E-01   4.000000E-01   4.000000E-01   4.000000E-01   4.000000E-01   4.000000E-01   4.000000E-01   4.000000E-01   4.000000E-01   4.000000E-01   4.000000E-01   4.000000E-01   4.000000E-01   4.000000E-01   4.000000E-01   4.000000E-01   4.000000E-01   4.000000E-01   4.000000E-01   4.000000E-01   4.000000E-01   4.000000E-01   4.000000E-01   4.000000E-01   4.000000E-01   4.000000E-01   4.000000E-01   4.000000E-01   4.000000E-01   4.000000E-01   4.000000E-01   4.000000E-01   4.000000E-01   4.000000E-01   4.000000E-01   4.000000E-01   4.000000E-01   4.000000E-01   4.000000E-01   4.000000E-01   4.000000E-01   4.000000E-01   4.000000E-01   4.000000E-01   4.000000E-01   4.000000E-01   4.000000E-01   4.000000E-01   4.000000E-01   4.000000E-01   4.000000E-01   4.000000E-01   4.000000E-01   4.000000E-01   4.000000E-01   4.000000E-01   4.000000E-01   4.000000E-01   4.000000E-01   4.000000E-01   4.000000E-01   4.000000E-01   4.000000E-01   4.000000E-01   4.000000E-01   4.000000E-01   4.000000E-01   4.000000E-01   4.000000E-01   4.000000E-01   4.000000E-01   4.000000E-01   4.000000E-01   4.000000E-01   4.000000E-01   4.000000E-01   4.000000E-01   4.000000E-01   4.000000E-01   4.000000E-01   4.000000E-01   4.000000E-01   4.000000E-01   4.000000E-01   4.000000E-01   4.000000E-01   4.000000E-01   4.000000E-01   4.000000E-01   4.000000E-01   4.000000E-01   4.000000E-01   4.000000E-01   4.000000E-01   4.000000E-01   4.000000E-01   4.000000E-01   4.000000E-01   4.000000E-01   4.000000E-01   4.000000E-01   4.000000E-01   4.000000E-01   4.000000E-01   4.000000E-01   4.000000E-01   4.000000E-01   4.000000E-01   4.000000E-01   4.000000E-01   4.000000E-01   4.000000E-01   4.000000E-01   4.000000E-01   4.000000E-01   4.000000E-01   4.000000E-01   4.000000E-01   4.000000E-01   4.000000E-01   4.000000E-01   4.000000E-01   4.000000E-01   4.000000E-01   4.000000E-01   4.000000E-01   4.000000E-01   4.000000E-01   4.000000E-01   4.000000E-01   4.000000E-01   4.000000E-01   4.000000E-01   4.000000E-01   4.000000E-01   4.000000E-01   4.000000E-01   4.000000E-01   4.000000E-01   4.000000E-01   4.000000E-01   4.000000E-01   4.000000E-01   4.000000E-01   4.000000E-01   4.000000E-01   4.000000E-01   4.000000E-01   4.000000E-01   4.000000E-01   4.000000E-01   4.000000E-01   4.000000E-01   4.000000E-01   4.000000E-01   4.000000E-01   4.000000E-01   4.000000E-01   4.000000E-01   4.000000E-01   4.000000E-01   4.000000E-01   4.000000E-01   4.000000E-01   4.000000E-01   4.000000E-01   4.000000E-01   4.000000E-01   4.000000E-01   4.000000E-01   4.000000E-01   4.000000E-01   4.000000E-01   4.000000E-01   4.000000E-01   4.000000E-01   4.000000E-01   4.000000E-01   4.000000E-01   4.000000E-01   4.000000E-01   4.000000E-01   4.000000E-01   4.000000E-01   4.000000E-01   4.000000E-01   4.000000E-01   4.000000E-01   4.000000E-01   4.000000E-01   4.000000E-01   4.000000E-01   4.000000E-01   4.000000E-01   4.000000E-01   4.000000E-01   4.000000E-01   4.000000E-01   4.000000E-01   4.000000E-01   4.000000E-01   4.000000E-01   4.000000E-01   4.000000E-01   4.000000E-01   4.000000E-01   4.000000E-01   4.000000E-01   4.000000E-01   4.000000E-01   4.000000E-01   4.000000E-01   4.000000E-01   4.000000E-01   4.000000E-01   4.000000E-01   4.000000E-01   4.000000E-01   4.000000E-01   4.000000E-01   4.000000E-01   4.000000E-01   4.000000E-01   4.000000E-01   4.000000E-01   4.000000E-01   4.000000E-01   4.000000E-01   4.000000E-01   4.000000E-01   4.000000E-01   4.000000E-01   4.000000E-01   4.000000E-01   4.000000E-01   4.000000E-01   4.000000E-01   4.000000E-01   4.000000E-01   4.000000E-01   4.000000E-01   4.000000E-01   4.000000E-01   4.000000E-01   4.000000E-01   4.000000E-01   4.000000E-01   4.000000E-01   4.000000E-01   4.000000E-01   4.000000E-01   4.000000E-01   4.000000E-01   4.000000E-01   4.000000E-01   4.000000E-01   4.000000E-01   4.000000E-01   4.000000E-01   4.000000E-01   4.000000E-01   4.000000E-01   4.000000E-01   4.000000E-01   4.000000E-01   4.000000E-01   4.000000E-01   4.000000E-01   4.000000E-01   4.000000E-01   4.000000E-01   4.000000E-01   4.000000E-01   4.000000E-01   4.000000E-01   4.000000E-01   4.000000E-01   4.000000E-01   4.000000E-01   4.000000E-01   4.000000E-01   4.000000E-01   4.000000E-01   4.000000E-01   4.000000E-01   4.000000E-01   4.000000E-01   4.000000E-01   4.000000E-01   4.000000E-01   4.000000E-01   4.000000E-01   4.000000E-01   4.000000E-01   4.000000E-01   4.000000E-01   4.000000E-01   4.000000E-01   4.000000E-01   4.000000E-01   4.000000E-01   4.000000E-01   4.000000E-01   4.000000E-01   4.000000E-01   4.000000E-01   4.000000E-01   4.000000E-01   4.000000E-01   4.000000E-01   4.000000E-01   4.000000E-01   4.000000E-01   4.000000E-01   4.000000E-01   4.000000E-01   4.000000E-01   4.000000E-01   4.000000E-01   4.000000E-01   4.000000E-01   4.000000E-01   4.000000E-01   4.000000E-01   4.000000E-01   4.000000E-01   4.000000E-01   4.000000E-01   4.000000E-01   4.000000E-01   4.000000E-01   4.000000E-01   4.000000E-01   4.000000E-01   4.000000E-01   4.000000E-01   4.000000E-01   4.000000E-01   4.000000E-01   4.000000E-01   4.000000E-01   4.000000E-01   4.000000E-01   4.000000E-01   4.000000E-01   4.000000E-01   4.000000E-01   4.000000E-01   4.000000E-01   4.000000E-01   4.000000E-01   4.000000E-01   4.000000E-01   4.000000E-01   4.000000E-01   4.000000E-01   4.000000E-01   4.000000E-01   4.000000E-01   4.000000E-01   4.000000E-01   4.000000E-01   4.000000E-01   4.000000E-01   4.000000E-01   4.000000E-01   4.000000E-01   4.000000E-01   4.000000E-01   4.000000E-01   4.000000E-01   4.000000E-01   4.000000E-01   4.000000E-01   4.000000E-01   4.000000E-01   4.000000E-01   4.000000E-01   4.000000E-01   4.000000E-01   4.000000E-01   4.000000E-01   4.000000E-01   4.000000E-01   4.000000E-01   4.000000E-01   4.000000E-01   4.000000E-01   4.000000E-01   4.000000E-01   4.000000E-01   4.000000E-01   4.000000E-01   4.000000E-01   4.000000E-01   4.000000E-01   4.000000E-01   4.000000E-01   4.000000E-01   4.000000E-01   4.000000E-01   4.000000E-01   4.000000E-01   4.000000E-01   4.000000E-01   4.000000E-01   4.000000E-01   4.000000E-01   4.000000E-01   4.000000E-01   4.000000E-01   4.000000E-01   4.000000E-01   4.000000E-01   4.000000E-01   4.000000E-01   4.000000E-01   4.000000E-01   4.000000E-01   4.000000E-01   4.000000E-01   4.000000E-01   4.000000E-01   4.000000E-01   4.000000E-01   4.000000E-01   4.000000E-01   4.000000E-01   4.000000E-01   4.000000E-01   4.000000E-01   4.000000E-01   4.000000E-01   4.000000E-01   4.000000E-01   4.000000E-01   4.000000E-01   4.000000E-01   4.000000E-01   4.000000E-01   4.000000E-01   4.000000E-01   4.000000E-01   4.000000E-01   4.000000E-01   4.000000E-01   4.000000E-01   4.000000E-01   4.000000E-01   4.000000E-01   4.000000E-01   4.000000E-01   4.000000E-01   4.000000E-01   4.000000E-01   4.000000E-01   4.000000E-01   4.000000E-01   4.000000E-01   4.000000E-01   4.000000E-01   4.000000E-01   4.000000E-01   4.000000E-01   4.000000E-01   4.000000E-01   4.000000E-01   4.000000E-01   4.000000E-01   4.000000E-01   4.000000E-01   4.000000E-01   4.000000E-01   4.000000E-01   4.000000E-01   4.000000E-01   4.000000E-01   4.000000E-01   4.000000E-01   4.000000E-01   4.000000E-01   4.000000E-01   4.000000E-01   4.000000E-01   4.000000E-01   4.000000E-01   4.000000E-01   4.000000E-01   4.000000E-01   4.000000E-01   4.000000E-01   4.000000E-01   4.000000E-01   4.000000E-01   4.000000E-01   4.000000E-01   4.000000E-01   4.000000E-01   4.000000E-01   4.000000E-01   4.000000E-01   4.000000E-01   4.000000E-01   4.000000E-01   4.000000E-01   4.000000E-01   4.000000E-01   4.000000E-01   4.000000E-01   4.000000E-01   4.000000E-01   4.000000E-01   4.000000E-01   4.000000E-01   4.000000E-01   4.000000E-01   4.000000E-01   4.000000E-01   4.000000E-01   4.000000E-01   4.000000E-01   4.000000E-01   4.000000E-01   4.000000E-01   4.000000E-01   4.000000E-01   4.000000E-01   4.000000E-01   4.000000E-01   4.000000E-01   4.000000E-01   4.000000E-01   4.000000E-01   4.000000E-01   4.000000E-01   4.000000E-01   4.000000E-01   4.000000E-01   4.000000E-01   4.000000E-01   4.000000E-01   4.000000E-01   4.000000E-01   4.000000E-01   4.000000E-01   4.000000E-01   4.000000E-01   4.000000E-01   4.000000E-01   4.000000E-01   4.000000E-01   4.000000E-01   4.000000E-01   4.000000E-01   4.000000E-01   4.000000E-01   4.000000E-01   4.000000E-01   4.000000E-01   4.000000E-01   4.000000E-01   4.000000E-01   4.000000E-01   4.000000E-01   4.000000E-01   4.000000E-01   4.000000E-01   4.000000E-01   4.000000E-01   4.000000E-01   4.000000E-01   4.000000E-01   4.000000E-01   4.000000E-01   4.000000E-01   4.000000E-01   4.000000E-01   4.000000E-01   4.000000E-01   4.000000E-01   4.000000E-01   4.000000E-01   4.000000E-01   4.000000E-01   4.000000E-01   4.000000E-01   4.000000E-01   4.000000E-01   4.000000E-01   4.000000E-01   4.000000E-01   4.000000E-01   4.000000E-01   4.000000E-01   4.000000E-01   4.000000E-01   4.000000E-01   4.000000E-01   4.000000E-01   4.000000E-01   4.000000E-01   4.000000E-01   4.000000E-01   4.000000E-01   4.000000E-01   4.000000E-01   4.000000E-01   4.000000E-01   4.000000E-01   4.000000E-01   4.000000E-01   4.000000E-01   4.000000E-01   4.000000E-01   4.000000E-01   4.000000E-01   4.000000E-01   4.000000E-01   4.000000E-01   4.000000E-01   4.000000E-01   4.000000E-01   4.000000E-01   4.000000E-01   4.000000E-01   4.000000E-01   4.000000E-01   4.000000E-01   4.000000E-01   4.000000E-01   4.000000E-01   4.000000E-01   4.000000E-01   4.000000E-01   4.000000E-01   4.000000E-01   4.000000E-01   4.000000E-01   4.000000E-01   4.000000E-01   4.000000E-01   4.000000E-01   4.000000E-01   4.000000E-01   4.000000E-01   4.000000E-01   4.000000E-01   4.000000E-01   4.000000E-01   4.000000E-01   4.000000E-01   4.000000E-01   4.000000E-01   4.000000E-01   4.000000E-01   4.000000E-01   4.000000E-01   4.000000E-01   4.000000E-01   4.000000E-01   4.000000E-01   4.000000E-01   4.000000E-01   4.000000E-01   4.000000E-01   4.000000E-01   4.000000E-01   4.000000E-01   4.000000E-01   4.000000E-01   4.000000E-01   4.000000E-01   4.000000E-01   4.000000E-01   4.000000E-01   4.000000E-01   4.000000E-01   4.000000E-01   4.000000E-01   4.000000E-01   4.000000E-01   4.000000E-01   4.000000E-01   4.000000E-01   4.000000E-01   4.000000E-01   4.000000E-01   4.000000E-01   4.000000E-01   4.000000E-01   4.000000E-01   4.000000E-01   4.000000E-01   4.000000E-01   4.000000E-01   4.000000E-01   4.000000E-01   4.000000E-01   4.000000E-01   4.000000E-01   4.000000E-01   4.000000E-01   4.000000E-01   4.000000E-01   4.000000E-01   4.000000E-01   4.000000E-01   4.000000E-01   4.000000E-01   4.000000E-01   4.000000E-01   4.000000E-01   4.000000E-01   4.000000E-01   4.000000E-01   4.000000E-01   4.000000E-01   4.000000E-01   4.000000E-01   4.000000E-01   4.000000E-01   4.000000E-01   4.000000E-01   4.000000E-01   4.000000E-01   4.000000E-01   4.000000E-01   4.000000E-01   4.000000E-01   4.000000E-01   4.000000E-01   4.000000E-01   4.000000E-01   4.000000E-01   4.000000E-01   4.000000E-01   4.000000E-01   4.000000E-01   4.000000E-01   4.000000E-01   4.000000E-01   4.000000E-01   4.000000E-01   4.000000E-01   4.000000E-01   4.000000E-01   4.000000E-01   4.000000E-01   4.000000E-01   4.000000E-01   4.000000E-01   4.000000E-01   4.000000E-01   4.000000E-01   4.000000E-01   4.000000E-01   4.000000E-01   4.000000E-01   4.000000E-01   4.000000E-01   4.000000E-01   4.000000E-01   4.000000E-01   4.000000E-01   4.000000E-01   4.000000E-01   4.000000E-01   4.000000E-01   4.000000E-01   4.000000E-01   4.000000E-01   4.000000E-01   4.000000E-01   4.000000E-01   4.000000E-01   4.000000E-01   4.000000E-01   4.000000E-01   4.000000E-01   4.000000E-01   4.000000E-01   4.000000E-01   4.000000E-01   4.000000E-01   4.000000E-01   4.000000E-01   4.000000E-01   4.000000E-01   4.000000E-01   4.000000E-01   4.000000E-01   4.000000E-01   4.000000E-01   4.000000E-01   4.000000E-01   4.000000E-01   4.000000E-01   4.000000E-01   4.000000E-01   4.000000E-01   4.000000E-01   4.000000E-01   4.000000E-01   4.000000E-01   4.000000E-01   4.000000E-01   4.000000E-01   4.000000E-01   4.000000E-01   4.000000E-01   4.000000E-01   4.000000E-01   4.000000E-01   4.000000E-01   4.000000E-01   4.000000E-01   4.000000E-01   4.000000E-01   4.000000E-01   4.000000E-01   4.000000E-01   4.000000E-01   4.000000E-01   4.000000E-01   4.000000E-01   4.000000E-01   4.000000E-01   4.000000E-01   4.000000E-01   4.000000E-01   4.000000E-01   4.000000E-01   4.000000E-01   4.000000E-01   4.000000E-01   4.000000E-01   4.000000E-01   4.000000E-01   4.000000E-01   4.000000E-01   4.000000E-01   4.000000E-01   4.000000E-01   4.000000E-01   4.000000E-01   4.000000E-01   4.000000E-01   4.000000E-01   4.000000E-01   4.000000E-01   4.000000E-01   4.000000E-01   4.000000E-01   4.000000E-01   4.000000E-01   4.000000E-01   4.000000E-01   4.000000E-01   4.000000E-01   4.000000E-01   4.000000E-01   4.000000E-01   4.000000E-01   4.000000E-01   4.000000E-01   4.000000E-01   4.000000E-01   4.000000E-01   4.000000E-01   4.000000E-01   4.000000E-01   4.000000E-01   4.000000E-01   4.000000E-01   4.000000E-01   4.000000E-01   4.000000E-01   4.000000E-01   4.000000E-01   4.000000E-01   4.000000E-01   4.000000E-01   4.000000E-01   4.000000E-01   4.000000E-01   4.000000E-01   4.000000E-01   4.000000E-01   4.000000E-01   4.000000E-01   4.000000E-01   4.000000E-01   4.000000E-01   4.000000E-01   4.000000E-01   4.000000E-01   4.000000E-01   4.000000E-01   4.000000E-01   4.000000E-01   4.000000E-01   4.000000E-01   4.000000E-01   4.000000E-01   4.000000E-01   4.000000E-01   4.000000E-01   4.000000E-01   4.000000E-01   4.000000E-01   4.000000E-01   4.000000E-01   4.000000E-01   4.000000E-01   4.000000E-01   4.000000E-01   4.000000E-01   4.000000E-01   4.000000E-01   4.000000E-01   4.000000E-01   4.000000E-01   4.000000E-01   4.000000E-01   4.000000E-01   4.000000E-01   4.000000E-01   4.000000E-01   4.000000E-01   4.000000E-01   4.000000E-01   4.000000E-01   4.000000E-01   4.000000E-01   4.000000E-01   4.000000E-01   4.000000E-01   4.000000E-01   4.000000E-01   4.000000E-01   4.000000E-01   4.000000E-01   4.000000E-01   4.000000E-01   4.000000E-01   4.000000E-01   4.000000E-01   4.000000E-01   4.000000E-01   4.000000E-01   4.000000E-01   4.000000E-01   4.000000E-01   4.000000E-01   4.000000E-01   4.000000E-01   4.000000E-01   4.000000E-01   4.000000E-01   4.000000E-01   4.000000E-01   4.000000E-01   4.000000E-01   4.000000E-01   4.000000E-01   4.000000E-01   4.000000E-01   4.000000E-01   4.000000E-01   4.000000E-01   4.000000E-01   4.000000E-01   4.000000E-01   4.000000E-01   4.000000E-01   4.000000E-01   4.000000E-01   4.000000E-01   4.000000E-01   4.000000E-01   4.000000E-01   4.000000E-01   4.000000E-01   4.000000E-01   4.000000E-01   4.000000E-01   4.000000E-01   4.000000E-01   4.000000E-01   4.000000E-01   4.000000E-01   4.000000E-01   4.000000E-01   4.000000E-01   4.000000E-01   4.000000E-01   4.000000E-01   4.000000E-01   4.000000E-01   4.000000E-01   4.000000E-01   4.000000E-01   4.000000E-01   4.000000E-01   4.000000E-01   4.000000E-01   4.000000E-01   4.000000E-01   4.000000E-01   4.000000E-01   4.000000E-01   4.000000E-01   4.000000E-01   4.000000E-01   4.000000E-01   4.000000E-01   4.000000E-01   4.000000E-01   4.000000E-01   4.000000E-01   4.000000E-01   4.000000E-01   4.000000E-01   4.000000E-01   4.000000E-01   4.000000E-01   4.000000E-01   4.000000E-01   4.000000E-01   4.000000E-01   4.000000E-01   4.000000E-01   4.000000E-01   4.000000E-01   4.000000E-01   4.000000E-01   4.000000E-01   4.000000E-01   4.000000E-01   4.000000E-01   4.000000E-01   4.000000E-01   4.000000E-01   4.000000E-01   4.000000E-01   4.000000E-01   4.000000E-01   4.000000E-01   4.000000E-01   4.000000E-01   4.000000E-01   4.000000E-01   4.000000E-01   4.000000E-01   4.000000E-01   4.000000E-01   4.000000E-01   4.000000E-01   4.000000E-01   4.000000E-01   4.000000E-01   4.000000E-01   4.000000E-01   4.000000E-01   4.000000E-01   4.000000E-01   4.000000E-01   4.000000E-01   4.000000E-01   4.000000E-01   4.000000E-01   4.000000E-01   4.000000E-01   4.000000E-01   4.000000E-01   4.000000E-01   4.000000E-01   4.000000E-01   4.000000E-01   4.000000E-01   4.000000E-01   4.000000E-01   4.000000E-01   4.000000E-01   4.000000E-01   4.000000E-01   4.000000E-01   4.000000E-01   4.000000E-01   4.000000E-01   4.000000E-01   4.000000E-01   4.000000E-01   4.000000E-01   4.000000E-01   4.000000E-01   4.000000E-01   4.000000E-01   4.000000E-01   4.000000E-01   4.000000E-01   4.000000E-01   4.000000E-01   4.000000E-01   4.000000E-01   4.000000E-01   4.000000E-01   4.000000E-01   4.000000E-01   4.000000E-01   4.000000E-01   4.000000E-01   4.000000E-01   4.000000E-01   4.000000E-01   4.000000E-01   4.000000E-01   4.000000E-01   4.000000E-01   4.000000E-01   