<?xml version="1.0"?>
<!-- Time =  8.0059029269477000E-01s -->
<VTKFile type="PolyData" version="0.1" byte_order="LittleEndian">
<PolyData>
<Piece NumberOfPoints="0000002400" NumberOfVerts="0" NumberOfLines="0" NumberOfStrips="0" NumberOfPolys="0">
<Points>
<DataArray type="Float32" Name="Position" NumberOfComponents="3" format="ascii">
  1.401266E+00   2.002416E-01   0.000000E+00   2.288324E+00   2.000436E-01   0.000000E+00   3.537989E+00   1.970797E-01   0.000000E+00   4.350018E+00   1.996498E-01   0.000000E+00   6.481633E+00   2.052951E-01   0.000000E+00   6.382541E+00   3.693795E+00   0.000000E+00   7.720623E+00   1.095686E+01   0.000000E+00   7.756835E+00   2.508838E+01   0.000000E+00   6.194078E+00   1.538325E+01   0.000000E+00   3.601454E+00   9.404880E+00   0.000000E+00   3.987488E+00   9.296982E+00   0.000000E+00   3.622654E+00   1.824312E+01   0.000000E+00   5.441714E+00   2.505798E+01   0.000000E+00   7.958171E+00   1.566494E+01   0.000000E+00   2.002445E-01   1.982026E-01   0.000000E+00   1.888484E+00   1.993637E-01   0.000000E+00   2.709098E+00   1.975636E-01   0.000000E+00   3.937923E+00   1.986048E-01   0.000000E+00   5.679488E+00   1.994317E-01   0.000000E+00   6.727221E+00   2.849543E+00   0.000000E+00   6.890638E+00   8.839993E+00   0.000000E+00   5.828247E+00   1.726536E+01   0.000000E+00   6.887056E+00   2.155879E+01   0.000000E+00   4.072438E+00   2.022924E+01   0.000000E+00   3.790450E+00   1.777840E+01   0.000000E+00   4.236654E+00   1.918816E+01   0.000000E+00   3.294735E+00   1.097337E+01   0.000000E+00   5.991113E+00   2.080632E+01   0.000000E+00   3.163498E+00   1.427966E+01   0.000000E+00   7.782994E+00   2.707677E+01   0.000000E+00   6.018791E-01   1.937589E-01   0.000000E+00   2.083498E+00   5.481593E-01   0.000000E+00   2.507000E+00   5.403508E-01   0.000000E+00   4.770363E+00   1.990674E-01   0.000000E+00   6.081130E+00   1.999099E-01   0.000000E+00   7.712034E+00   8.675917E+00   0.000000E+00   7.304378E+00   1.704213E+01   0.000000E+00   7.130157E+00   1.973845E+01   0.000000E+00   3.341913E+00   1.499778E+01   0.000000E+00   7.703153E+00   2.166053E+01   0.000000E+00   3.527763E+00   1.196632E+01   0.000000E+00   4.990091E+00   2.300684E+01   0.000000E+00   3.971763E+00   1.009191E+01   0.000000E+00   6.590631E+00   2.380199E+01   0.000000E+00   1.991078E-01   5.965742E-01   0.000000E+00   1.001388E+00   1.957489E-01   0.000000E+00   1.727532E+00   9.085737E-01   0.000000E+00   3.109099E+00   1.996402E-01   0.000000E+00   5.202994E+00   2.004051E-01   0.000000E+00   6.279678E+00   5.514659E-01   0.000000E+00   5.911786E+00   1.238330E+01   0.000000E+00   7.638237E+00   6.112087E+00   0.000000E+00   6.255217E+00   2.118925E+01   0.000000E+00   7.017048E+00   2.581303E+01   0.000000E+00   3.761856E+00   2.464922E+01   0.000000E+00   4.026142E+00   1.839480E+01   0.000000E+00   3.519992E+00   1.155537E+01   0.000000E+00   4.062910E+00   1.659726E+01   0.000000E+00   4.906227E+00   2.224590E+01   0.000000E+00   7.579383E+00   1.976612E+01   0.000000E+00   5.981629E-01   5.877814E-01   0.000000E+00   1.646112E+00   5.168317E-01   0.000000E+00   2.303107E+00   8.822874E-01   0.000000E+00   4.560826E+00   5.392157E-01   0.000000E+00   5.877122E+00   5.481663E-01   0.000000E+00   6.076761E+00   1.461342E+01   0.000000E+00   7.739869E+00   2.016899E+01   0.000000E+00   6.382640E+00   2.555872E+01   0.000000E+00   6.434493E+00   2.623430E+01   0.000000E+00   3.907353E+00   1.318337E+01   0.000000E+00   4.986559E+00   1.883948E+01   0.000000E+00   3.760005E+00   1.607651E+01   0.000000E+00   4.317002E+00   2.267843E+01   0.000000E+00   3.526407E+00   1.647797E+01   0.000000E+00   3.763732E+00   1.737013E+01   0.000000E+00   1.983943E-01   9.952443E-01   0.000000E+00   9.975120E-01   5.915168E-01   0.000000E+00   1.348081E+00   7.824820E-01   0.000000E+00   2.906919E+00   5.443573E-01   0.000000E+00   4.142822E+00   5.415488E-01   0.000000E+00   6.596366E+00   1.196292E+01   0.000000E+00   6.608615E+00   2.420261E+01   0.000000E+00   7.359799E+00   2.497475E+01   0.000000E+00   7.149260E+00   2.651186E+01   0.000000E+00   5.131239E+00   2.640098E+01   0.000000E+00   5.302412E+00   2.676396E+01   0.000000E+00   4.561873E+00   1.723400E+01   0.000000E+00   4.033773E+00   1.478249E+01   0.000000E+00   4.506206E+00   2.230365E+01   0.000000E+00   7.878949E+00   2.668353E+01   0.000000E+00   5.966152E-01   9.821734E-01   0.000000E+00   9.947844E-01   9.879953E-01   0.000000E+00   2.029795E+00   1.171935E+00   0.000000E+00   3.327374E+00   5.347049E-01   0.000000E+00   7.355700E+00   5.813060E+00   0.000000E+00   6.471200E+00   2.155629E+01   0.000000E+00   6.617033E+00   2.046429E+01   0.000000E+00   7.779895E+00   2.559887E+01   0.000000E+00   6.673774E+00   2.527999E+01   0.000000E+00   6.596420E+00   2.698042E+01   0.000000E+00   4.102656E+00   2.230122E+01   0.000000E+00   3.957892E+00   2.499824E+01   0.000000E+00   7.376507E+00   2.395060E+01   0.000000E+00   6.824962E+00   2.081299E+01   0.000000E+00   1.988596E-01   1.394345E+00   0.000000E+00   5.973281E-01   1.376513E+00   0.000000E+00   1.342570E+00   1.181738E+00   0.000000E+00   2.703183E+00   8.884655E-01   0.000000E+00   4.985103E+00   5.359418E-01   0.000000E+00   7.772420E+00   9.608006E+00   0.000000E+00   5.688068E+00   1.510662E+01   0.000000E+00   7.932273E+00   1.932577E+01   0.000000E+00   5.951865E+00   2.444008E+01   0.000000E+00   6.380496E+00   2.266254E+01   0.000000E+00   7.194372E+00   2.351474E+01   0.000000E+00   4.991390E+00   2.117752E+01   0.000000E+00   7.651728E+00   2.470116E+01   0.000000E+00   7.413366E+00   2.575847E+01   0.000000E+00   3.985135E+00   2.348203E+01   0.000000E+00   6.672096E+00   2.190769E+01   0.000000E+00   1.999682E-01   1.793893E+00   0.000000E+00   9.965239E-01   1.385911E+00   0.000000E+00   1.688563E+00   1.378081E+00   0.000000E+00   3.126099E+00   8.782305E-01   0.000000E+00   6.475715E+00   9.431637E-01   0.000000E+00   6.784412E+00   1.469452E+01   0.000000E+00   7.782899E+00   1.850736E+01   0.000000E+00   4.598050E+00   1.430257E+01   0.000000E+00   6.146315E+00   2.588534E+01   0.000000E+00   5.602178E+00   2.645611E+01   0.000000E+00   6.358082E+00   2.662680E+01   0.000000E+00   3.562293E+00   1.457562E+01   0.000000E+00   4.662457E+00   2.192117E+01   0.000000E+00   4.583053E+00   2.120779E+01   0.000000E+00   3.136464E+00   1.559404E+01   0.000000E+00   7.772517E+00   2.407801E+01   0.000000E+00   7.717263E+00   2.603818E+01   0.000000E+00   2.004782E-01   2.193743E+00   0.000000E+00   5.993406E-01   1.770971E+00   0.000000E+00   9.986688E-01   1.784598E+00   0.000000E+00   1.691994E+00   1.776886E+00   0.000000E+00   4.775954E+00   8.767774E-01   0.000000E+00   6.405768E+00   4.132307E+00   0.000000E+00   7.624572E+00   1.730727E+01   0.000000E+00   5.579916E+00   1.124227E+01   0.000000E+00   7.306024E+00   2.015455E+01   0.000000E+00   5.988786E+00   2.625239E+01   0.000000E+00   6.204839E+00   2.302986E+01   0.000000E+00   5.728474E+00   2.584405E+01   0.000000E+00   6.404163E+00   2.338681E+01   0.000000E+00   3.749631E+00   1.518404E+01   0.000000E+00   4.606040E+00   1.840680E+01   0.000000E+00   4.179858E+00   1.606187E+01   0.000000E+00   4.058725E+00   2.300231E+01   0.000000E+00   2.001801E-01   2.593628E+00   0.000000E+00   5.994928E-01   2.166130E+00   0.000000E+00   1.344267E+00   1.581455E+00   0.000000E+00   3.736443E+00   5.429530E-01   0.000000E+00   5.442936E+00   5.210283E-01   0.000000E+00   6.843616E+00   1.568969E+01   0.000000E+00   5.583661E+00   1.446064E+01   0.000000E+00   7.049656E+00   1.057845E+01   0.000000E+00   6.064289E+00   2.154280E+01   0.000000E+00   5.193310E+00   2.474329E+01   0.000000E+00   7.028919E+00   2.689209E+01   0.000000E+00   4.554251E+00   1.943744E+01   0.000000E+00   4.499133E+00   1.772689E+01   0.000000E+00   6.871862E+00   2.620162E+01   0.000000E+00   6.413764E+00   2.081525E+01   0.000000E+00   2.141731E-01   2.993302E+00   0.000000E+00   6.016623E-01   2.561721E+00   0.000000E+00   9.996152E-01   2.183651E+00   0.000000E+00   2.428410E+00   1.261843E+00   0.000000E+00   4.353858E+00   8.805295E-01   0.000000E+00   6.070463E+00   8.980830E-01   0.000000E+00   4.983838E+00   1.518218E+01   0.000000E+00   6.818239E+00   1.348893E+01   0.000000E+00   6.516913E+00   6.945683E+00   0.000000E+00   6.112172E+00   2.226116E+01   0.000000E+00   6.756047E+00   2.658500E+01   0.000000E+00   3.987906E+00   2.145776E+01   0.000000E+00   4.287497E+00   1.876966E+01   0.000000E+00   4.048462E+00   2.436937E+01   0.000000E+00   3.266052E+00   1.258051E+01   0.000000E+00   2.026895E-01   3.393117E+00   0.000000E+00   6.123466E-01   2.957012E+00   0.000000E+00   1.346521E+00   1.981116E+00   0.000000E+00   1.695407E+00   2.175598E+00   0.000000E+00   2.924754E+00   1.221174E+00   0.000000E+00   5.225282E+00   8.555865E-01   0.000000E+00   6.256399E+00   1.278458E+00   0.000000E+00   6.387820E+00   1.755873E+00   0.000000E+00   6.619339E+00   4.792283E+00   0.000000E+00   5.711341E+00   2.226377E+01   0.000000E+00   4.763597E+00   2.525439E+01   0.000000E+00   5.835855E+00   2.512751E+01   0.000000E+00   3.528038E+00   1.552525E+01   0.000000E+00   3.353607E+00   1.593696E+01   0.000000E+00   4.146618E+00   1.753145E+01   0.000000E+00   7.671722E+00   1.237946E+01   0.000000E+00   2.020817E-01   3.794510E+00   0.000000E+00   6.034106E-01   3.352237E+00   0.000000E+00   1.000927E+00   2.583176E+00   0.000000E+00   1.348151E+00   2.380877E+00   0.000000E+00   2.037535E+00   1.571619E+00   0.000000E+00   3.525403E+00   8.814769E-01   0.000000E+00   5.639953E+00   8.696275E-01   0.000000E+00   5.835758E+00   1.222144E+00   0.000000E+00   5.016946E+00   1.195975E+00   0.000000E+00   6.169679E+00   2.144789E+00   0.000000E+00   5.571006E+00   1.343699E+01   0.000000E+00   5.698967E+00   2.475205E+01   0.000000E+00   3.691045E+00   2.320084E+01   0.000000E+00   4.265119E+00   1.980562E+01   0.000000E+00   3.956053E+00   1.552582E+01  
[...]
<PointData Scalars="Diameter" Vectors="Velocity">
<DataArray type="Float32" Name="Diameter" format="ascii">
  4.000000E-01   4.000000E-01   4.000000E-01   4.000000E-01   4.000000E-01   4.000000E-01   4.000000E-01   4.000000E-01   4.000000E-01   4.000000E-01   4.000000E-01   4.000000E-01   4.000000E-01   4.000000E-01   4.000000E-01   4.000000E-01   4.000000E-01   4.000000E-01   4.000000E-01   4.000000E-01   4.000000E-01   4.000000E-01   4.000000E-01   4.000000E-01   4.000000E-01   4.000000E-01   4.000000E-01   4.000000E-01   4.000000E-01   4.000000E-01   4.000000E-01   4.000000E-01   4.000000E-01   4.000000E-01   4.000000E-01   4.000000E-01   4.000000E-01   4.000000E-01   4.000000E-01   4.000000E-01   4.000000E-01   4.000000E-01   4.000000E-01   4.000000E-01   4.000000E-01   4.000000E-01   4.000000E-01   4.000000E-01   4.000000E-01   4.000000E-01   4.000000E-01   4.000000E-01   4.000000E-01   4.000000E-01   4.000000E-01   4.000000E-01   4.000000E-01   4.000000E-01   4.000000E-01   4.000000E-01   4.000000E-01   4.000000E-01   4.000000E-01   4.000000E-01   4.000000E-01   4.000000E-01   4.000000E-01   4.000000E-01   4.000000E-01   4.000000E-01   4.000000E-01   4.000000E-01   4.000000E-01   4.000000E-01   4.000000E-01   4.000000E-01   4.000000E-01   4.000000E-01   4.000000E-01   4.000000E-01   4.000000E-01   4.000000E-01   4.000000E-01   4.000000E-01   4.000000E-01   4.000000E-01   4.000000E-01   4.000000E-01   4.000000E-01   4.000000E-01   4.000000E-01   4.000000E-01   4.000000E-01   4.000000E-01   4.000000E-01   4.000000E-01   4.000000E-01   4.000000E-01   4.000000E-01   4.000000E-01   4.000000E-01   4.000000E-01   4.000000E-01   4.000000E-01   4.000000E-01   4.000000E-01   4.000000E-01   4.000000E-01   4.000000E-01   4.000000E-01   4.000000E-01   4.000000E-01   4.000000E-01   4.000000E-01   4.000000E-01   4.000000E-01   4.000000E-01   4.000000E-01   4.000000E-01   4.000000E-01   4.000000E-01   4.000000E-01   4.000000E-01   4.000000E-01   4.000000E-01   4.000000E-01   4.000000E-01   4.000000E-01   4.000000E-01   4.000000E-01   4.000000E-01   4.000000E-01   4.000000E-01   4.000000E-01   4.000000E-01   4.000000E-01   4.000000E-01   4.000000E-01   4.000000E-01   4.000000E-01   4.000000E-01   4.000000E-01   4.000000E-01   4.000000E-01   4.000000E-01   4.000000E-01   4.000000E-01   4.000000E-01   4.000000E-01   4.000000E-01   4.000000E-01   4.000000E-01   4.000000E-01   4.000000E-01   4.000000E-01   4.000000E-01   4.000000E-01   4.000000E-01   4.000000E-01   4.000000E-01   4.000000E-01   4.000000E-01   4.000000E-01   4.000000E-01   4.000000E-01   4.000000E-01   4.000000E-01   4.000000E-01   4.000000E-01   4.000000E-01   4.000000E-01   4.000000E-01   4.000000E-01   4.000000E-01   4.000000E-01   4.000000E-01   4.000000E-01   4.000000E-01   4.000000E-01   4.000000E-01   4.000000E-01   4.000000E-01   4.000000E-01   4.000000E-01   4.000000E-01   4.000000E-01   4.000000E-01   4.000000E-01   4.000000E-01   4.000000E-01   4.000000E-01   4.000000E-01   4.000000E-01   4.000000E-01   4.000000E-01   4.000000E-01   4.000000E-01   4.000000E-01   4.000000E-01   4.000000E-01   4.000000E-01   4.000000E-01   4.000000E-01   4.000000E-01   4.000000E-01   4.000000E-01   4.000000E-01   4.000000E-01   4.000000E-01   4.000000E-01   4.000000E-01   4.000000E-01   4.000000E-01   4.000000E-01   4.000000E-01   4.000000E-01   4.000000E-01   4.000000E-01   4.000000E-01   4.000000E-01   4.000000E-01   4.000000E-01   4.000000E-01   4.000000E-01   4.000000E-01   4.000000E-01   4.000000E-01   4.000000E-01   4.000000E-01   4.000000E-01   4.000000E-01   4.000000E-01   4.000000E-01   4.000000E-01   4.000000E-01   4.000000E-01   4.000000E-01   4.000000E-01   4.000000E-01   4.000000E-01   4.000000E-01   4.000000E-01   4.000000E-01   4.000000E-01   4.000000E-01   4.000000E-01   4.000000E-01   4.000000E-01   4.000000E-01   4.000000E-01   4.000000E-01   4.000000E-01   4.000000E-01   4.000000E-01   4.000000E-01   4.000000E-01   4.000000E-01   4.000000E-01   4.000000E-01   4.000000E-01   4.000000E-01   4.000000E-01   4.000000E-01   4.000000E-01   4.000000E-01   4.000000E-01   4.000000E-01   4.000000E-01   4.000000E-01   4.000000E-01   4.000000E-01   4.000000E-01   4.000000E-01   4.000000E-01   4.000000E-01   4.000000E-01   4.000000E-01   4.000000E-01   4.000000E-01   4.000000E-01   4.000000E-01   4.000000E-01   4.000000E-01   4.000000E-01   4.000000E-01   4.000000E-01   4.000000E-01   4.000000E-01   4.000000E-01   4.000000E-01   4.000000E-01   4.000000E-01   4.000000E-01   4.000000E-01   4.000000E-01   4.000000E-01   4.000000E-01   4.000000E-01   4.000000E-01   4.000000E-01   4.000000E-01   4.000000E-01   4.000000E-01   4.000000E-01   4.000000E-01   4.000000E-01   4.000000E-01   4.000000E-01   4.000000E-01   4.000000E-01   4.000000E-01   4.000000E-01   4.000000E-01   4.000000E-01   4.000000E-01   4.000000E-01   4.000000E-01   4.000000E-01   4.000000E-01   4.000000E-01   4.000000E-01   4.000000E-01   4.000000E-01   4.000000E-01   4.000000E-01   4.000000E-01   4.000000E-01   4.000000E-01   4.000000E-01   4.000000E-01   4.000000E-01   4.000000E-01   4.000000E-01   4.000000E-01   4.000000E-01   4.000000E-01   4.000000E-01   4.000000E-01   4.000000E-01   4.000000E-01   4.000000E-01   4.000000E-01   4.000000E-01   4.000000E-01   4.000000E-01   4.000000E-01   4.000000E-01   4.000000E-01   4.000000E-01   4.000000E-01   4.000000E-01   4.000000E-01   4.000000E-01   4.000000E-01   4.000000E-01   4.000000E-01   4.000000E-01   4.000000E-01   4.000000E-01   4.000000E-01   4.000000E-01   4.000000E-01   4.000000E-01   4.000000E-01   4.000000E-01   4.000000E-01   4.000000E-01   4.000000E-01   4.000000E-01   4.000000E-01   4.000000E-01   4.000000E-01   4.000000E-01   4.000000E-01   4.000000E-01   4.000000E-01   4.000000E-01   4.000000E-01   4.000000E-01   4.000000E-01   4.000000E-01   4.000000E-01   4.000000E-01   4.000000E-01   4.000000E-01   4.000000E-01   4.000000E-01   4.000000E-01   4.000000E-01   4.000000E-01   4.000000E-01   4.000000E-01   4.000000E-01   4.000000E-01   4.000000E-01   4.000000E-01   4.000000E-01   4.000000E-01   4.000000E-01   4.000000E-01   4.000000E-01   4.000000E-01   4.000000E-01   4.000000E-01   4.000000E-01   4.000000E-01   4.000000E-01   4.000000E-01   4.000000E-01   4.000000E-01   4.000000E-01   4.000000E-01   4.000000E-01   4.000000E-01   4.000000E-01   4.000000E-01   4.000000E-01   4.000000E-01   4.000000E-01   4.000000E-01   4.000000E-01   4.000000E-01   4.000000E-01   4.000000E-01   4.000000E-01   4.000000E-01   4.000000E-01   4.000000E-01   4.000000E-01   4.000000E-01   4.000000E-01   4.000000E-01   4.000000E-01   4.000000E-01   4.000000E-01   4.000000E-01   4.000000E-01   4.000000E-01   4.000000E-01   4.000000E-01   4.000000E-01   4.000000E-01   4.000000E-01   4.000000E-01   4.000000E-01   4.000000E-01   4.000000E-01   4.000000E-01   4.000000E-01   4.000000E-01   4.000000E-01   4.000000E-01   4.000000E-01   4.000000E-01   4.000000E-01   4.000000E-01   4.000000E-01   4.000000E-01   4.000000E-01   4.000000E-01   4.000000E-01   4.000000E-01   4.000000E-01   4.000000E-01   4.000000E-01   4.000000E-01   4.000000E-01   4.000000E-01   4.000000E-01   4.000000E-01   4.000000E-01   4.000000E-01   4.000000E-01   4.000000E-01   4.000000E-01   4.000000E-01   4.000000E-01   4.000000E-01   4.000000E-01   4.000000E-01   4.000000E-01   4.000000E-01   4.000000E-01   4.000000E-01   4.000000E-01   4.000000E-01   4.000000E-01   4.000000E-01   4.000000E-01   4.000000E-01   4.000000E-01   4.000000E-01   4.000000E-01   4.000000E-01   4.000000E-01   4.000000E-01   4.000000E-01   4.000000E-01   4.000000E-01   4.000000E-01   4.000000E-01   4.000000E-01   4.000000E-01   4.000000E-01   4.000000E-01   4.000000E-01   4.000000E-01   4.000000E-01   4.000000E-01   4.000000E-01   4.000000E-01   4.000000E-01   4.000000E-01   4.000000E-01   4.000000E-01   4.000000E-01   4.000000E-01   4.000000E-01   4.000000E-01   4.000000E-01   4.000000E-01   4.000000E-01   4.000000E-01   4.000000E-01   4.000000E-01   4.000000E-01   4.000000E-01   4.000000E-01   4.000000E-01   4.000000E-01   4.000000E-01   4.000000E-01   4.000000E-01   4.000000E-01   4.000000E-01   4.000000E-01   4.000000E-01   4.000000E-01   4.000000E-01   4.000000E-01   4.000000E-01   4.000000E-01   4.000000E-01   4.000000E-01   4.000000E-01   4.000000E-01   4.000000E-01   4.000000E-01   4.000000E-01   4.000000E-01   4.000000E-01   4.000000E-01   4.000000E-01   4.000000E-01   4.000000E-01   4.000000E-01   4.000000E-01   4.000000E-01   4.000000E-01   4.000000E-01   4.000000E-01   4.000000E-01   4.000000E-01   4.000000E-01   4.000000E-01   4.000000E-01   4.000000E-01   4.000000E-01   4.000000E-01   4.000000E-01   4.000000E-01   4.000000E-01   4.000000E-01   4.000000E-01   4.000000E-01   4.000000E-01   4.000000E-01   4.000000E-01   4.000000E-01   4.000000E-01   4.000000E-01   4.000000E-01   4.000000E-01   4.000000E-01   4.000000E-01   4.000000E-01   4.000000E-01   4.000000E-01   4.000000E-01   4.000000E-01   4.000000E-01   4.000000E-01   4.000000E-01   4.000000E-01   4.000000E-01   4.000000E-01   4.000000E-01   4.000000E-01   4.000000E-01   4.000000E-01   4.000000E-01   4.000000E-01   4.000000E-01   4.000000E-01   4.000000E-01   4.000000E-01   4.000000E-01   4.000000E-01   4.000000E-01   4.000000E-01   4.000000E-01   4.000000E-01   4.000000E-01   4.000000E-01   4.000000E-01   4.000000E-01   4.000000E-01   4.000000E-01   4.000000E-01   4.000000E-01   4.000000E-01   4.000000E-01   4.000000E-01   4.000000E-01   4.000000E-01   4.000000E-01   4.000000E-01   4.000000E-01   4.000000E-01   4.000000E-01   4.000000E-01   4.000000E-01   4.000000E-01   4.000000E-01   4.000000E-01   4.000000E-01   4.000000E-01   4.000000E-01   4.000000E-01   4.000000E-01   4.000000E-01   4.000000E-01   4.000000E-01   4.000000E-01   4.000000E-01   4.000000E-01   4.000000E-01   4.000000E-01   4.000000E-01   4.000000E-01   4.000000E-01   4.000000E-01   4.000000E-01   4.000000E-01   4.000000E-01   4.000000E-01   4.000000E-01   4.000000E-01   4.000000E-01   4.000000E-01   4.000000E-01   4.000000E-01   4.000000E-01   4.000000E-01   4.000000E-01   4.000000E-01   4.000000E-01   4.000000E-01   4.000000E-01   4.000000E-01   4.000000E-01   4.000000E-01   4.000000E-01   4.000000E-01   4.000000E-01   4.000000E-01   4.000000E-01   4.000000E-01   4.000000E-01   4.000000E-01   4.000000E-01   4.000000E-01   4.000000E-01   4.000000E-01   4.000000E-01   4.000000E-01   4.000000E-01   4.000000E-01   4.000000E-01   4.000000E-01   4.000000E-01   4.000000E-01   4.000000E-01   4.000000E-01   4.000000E-01   4.000000E-01   4.000000E-01   4.000000E-01   4.000000E-01   4.000000E-01   4.000000E-01   4.000000E-01   4.000000E-01   4.000000E-01   4.000000E-01   4.000000E-01   4.000000E-01   4.000000E-01   4.000000E-01   4.000000E-01   4.000000E-01   4.000000E-01   4.000000E-01   4.000000E-01   4.000000E-01   4.000000E-01   4.000000E-01   4.000000E-01   4.000000E-01   4.000000E-01   4.000000E-01   4.000000E-01   4.000000E-01   4.000000E-01   4.000000E-01   4.000000E-01   4.000000E-01   4.000000E-01   4.000000E-01   4.000000E-01   4.000000E-01   4.000000E-01   4.000000E-01   4.000000E-01   4.000000E-01   4.000000E-01   4.000000E-01   4.000000E-01   4.000000E-01   4.000000E-01   4.000000E-01   4.000000E-01   4.000000E-01   4.000000E-01   4.000000E-01   4.000000E-01   4.000000E-01   4.000000E-01   4.000000E-01   4.000000E-01   4.000000E-01   4.000000E-01   4.000000E-01   4.000000E-01   4.000000E-01   4.000000E-01   4.000000E-01   4.000000E-01   4.000000E-01   4.000000E-01   4.000000E-01   4.000000E-01   4.000000E-01   4.000000E-01   4.000000E-01   4.000000E-01   4.000000E-01   4.000000E-01   4.000000E-01   4.000000E-01   4.000000E-01   4.000000E-01   4.000000E-01   4.000000E-01   4.000000E-01   4.000000E-01   4.000000E-01   4.000000E-01   4.000000E-01   4.000000E-01   4.000000E-01   4.000000E-01   4.000000E-01   4.000000E-01   4.000000E-01   4.000000E-01   4.000000E-01   4.000000E-01   4.000000E-01   4.000000E-01   4.000000E-01   4.000000E-01   4.000000E-01   4.000000E-01   4.000000E-01   4.000000E-01   4.000000E-01   4.000000E-01   4.000000E-01   4.000000E-01   4.000000E-01   4.000000E-01   4.000000E-01   4.000000E-01   4.000000E-01   4.000000E-01   4.000000E-01   4.000000E-01   4.000000E-01   4.000000E-01   4.000000E-01   4.000000E-01   4.000000E-01   4.000000E-01   4.000000E-01   4.000000E-01   4.000000E-01   4.000000E-01   4.000000E-01   4.000000E-01   4.000000E-01   4.000000E-01   4.000000E-01   4.000000E-01   4.000000E-01   4.000000E-01   4.000000E-01   4.000000E-01   4.000000E-01   4.000000E-01   4.000000E-01   4.000000E-01   4.000000E-01   4.000000E-01   4.000000E-01   4.000000E-01   4.000000E-01   4.000000E-01   4.000000E-01   4.000000E-01   4.000000E-01   4.000000E-01   4.000000E-01   4.000000E-01   4.000000E-01   4.000000E-01   4.000000E-01   4.000000E-01   4.000000E-01   4.000000E-01   4.000000E-01   4.000000E-01   4.000000E-01   4.000000E-01   4.000000E-01   4.000000E-01   4.000000E-01   4.000000E-01   4.000000E-01   4.000000E-01   4.000000E-01   4.000000E-01   4.000000E-01   4.000000E-01   4.000000E-01   4.000000E-01   4.000000E-01   4.000000E-01   4.000000E-01   4.000000E-01   4.000000E-01   4.000000E-01   4.000000E-01   4.000000E-01   4.000000E-01   4.000000E-01   4.000000E-01   4.000000E-01   4.000000E-01   4.000000E-01   4.000000E-01   4.000000E-01   4.000000E-01   4.000000E-01   4.000000E-01   4.000000E-01   4.000000E-01   4.000000E-01   4.000000E-01   4.000000E-01   4.000000E-01   4.000000E-01   4.000000E-01   4.000000E-01   4.000000E-01   4.000000E-01   4.000000E-01   4.000000E-01   4.000000E-01   4.000000E-01   4.000000E-01   4.000000E-01   4.000000E-01   4.000000E-01   4.000000E-01   4.000000E-01   4.000000E-01   4.000000E-01   4.000000E-01   4.000000E-01   4.000000E-01   4.000000E-01   4.000000E-01   4.000000E-01   4.000000E-01   4.000000E-01   4.000000E-01   4.000000E-01   4.000000E-01   4.000000E-01   4.000000E-01   4.000000E-01   4.000000E-01   4.000000E-01   4.000000E-01   4.000000E-01   4.000000E-01   4.000000E-01   4.000000E-01   4.000000E-01   4.000000E-01   4.000000E-01   4.000000E-01   4.000000E-01   4.000000E-01   4.000000E-01   4.000000E-01   4.000000E-01   4.000000E-01   4.000000E-01   4.000000E-01   4.000000E-01   4.000000E-01   4.000000E-01   4.000000E-01   4.000000E-01   4.000000E-01   4.000000E-01   4.000000E-01   4.000000E-01   4.000000E-01   4.000000E-01   4.000000E-01   4.000000E-01   4.000000E-01   4.000000E-01   4.000000E-01   4.000000E-01   4.000000E-01   4.000000E-01   4.000000E-01   4.000000E-01   4.000000E-01   4.000000E-01   4.000000E-01   4.000000E-01   4.000000E-01   4.000000E-01   4.000000E-01   4.000000E-01   4.000000E-01   4.000000E-01   4.000000E-01   4.000000E-01   4.000000E-01   4.000000E-01   4.000000E-01   4.000000E-01   4.000000E-01   4.000000E-01   4.000000E-01   4.000000E-01   4.000000E-01   4.000000E-01   4.000000E-01   4.000000E-01   4.000000E-01   4.000000E-01   4.000000E-01   4.000000E-01   4.000000E-01   4.000000E-01   4.000000E-01   4.000000E-01   4.000000E-01   4.000000E-01   4.000000E-01   4.000000E-01   4.000000E-01   4.000000E-01   4.000000E-01   4.000000E-01   4.000000E-01   4.000000E-01   4.000000E-01   4.000000E-01   4.000000E-01   4.000000E-01   4.000000E-01   4.000000E-01   4.000000E-01   4.000000E-01   4.000000E-01   4.000000E-01   4.000000E-01   4.000000E-01   4.000000E-01   4.000000E-01   4.000000E-01   4.000000E-01   4.000000E-01   4.000000E-01   4.000000E-01   4.000000E-01   4.000000E-01   4.000000E-01   4.000000E-01   4.000000E-01   4.000000E-01   4.000000E-01   4.000000E-01   4.000000E-01   4.000000E-01   4.000000E-01   4.000000E-01   4.000000E-01   4.000000E-01   4.000000E-01   4.000000E-01   4.000000E-01   4.000000E-01   4.000000E-01   4.000000E-01   4.000000E-01   4.000000E-01   4.000000E-01   4.000000E-01   4.000000E-01   4.000000E-01   4.000000E-01   4.000000E-01   4.000000E-01   4.000000E-01   4.000000E-01   4.000000E-01   4.000000E-01   4.000000E-01   4.000000E-01   4.000000E-01   4.000000E-01   4.000000E-01   4.000000E-01   4.000000E-01   4.000000E-01   4.000000E-01   4.000000E-01   4.000000E-01   4.000000E-01   4.000000E-01   4.000000E-01   4.000000E-01   4.000000E-01   4.000000E-01   4.000000E-01   4.000000E-01   4.000000E-01   4.000000E-01   4.000000E-01   4.000000E-01   4.000000E-01   4.000000E-01   4.000000E-01   4.000000E-01   4.000000E-01   4.000000E-01   4.000000E-01   4.000000E-01   4.000000E-01   4.000000E-01   4.000000E-01   4.000000E-01   4.000000E-01   4.000000E-01   4.000000E-01   4.000000E-01   4.000000E-01   4.000000E-01   4.000000E-01   4.000000E-01   4.000000E-01   4.000000E-01   4.000000E-01   4.000000E-01   4.000000E-01   4.000000E-01   4.000000E-01   4.000000E-01   4.000000E-01   4.000000E-01   4.000000E-01   4.000000E-01   4.000000E-01   4.000000E-01   4.000000E-01   4.000000E-01   4.000000E-01   4.000000E-01   4.000000E-01   4.000000E-01   4.000000E-01   4.000000E-01   4.000000E-01   4.000000E-01   4.000000E-01   4.000000E-01   4.000000E-01   4.000000E-01   4.000000E-01   4.000000E-01   4.000000E-01   4.000000E-01   4.000000E-01   4.000000E-01   4.000000E-01   4.000000E-01   4.000000E-01   4.000000E-01   4.000000E-01   4.000000E-01   4.000000E-01   4.000000E-01   4.000000E-01   4.000000E-01   4.000000E-01   4.000000E-01   4.000000E-01   4.000000E-01   4.000000E-01   4.000000E-01   4.000000E-01   4.000000E-01   4.000000E-01   4.000000E-01   4.000000E-01   4.000000E-01   4.000000E-01   4.000000E-01   4.000000E-01   4.000000E-01   4.000000E-01   4.000000E-01   4.000000E-01   4.000000E-01   4.000000E-01   4.000000E-01   4.000000E-01   4.000000E-01   4.000000E-01   4.000000E-01   4.000000E-01   4.000000E-01   4.000000E-01   4.000000E-01   4.000000E-01   4.000000E-01   4.000000E-01   4.000000E-01   4.000000E-01   4.000000E-01   4.000000E-01   4.000000E-01   4.000000E-01   4.000000E-01   4.000000E-01   4.000000E-01   4.000000E-01   4.000000E-01   4.000000E-01   4.000000E-01   4.000000E-01   4.000000E-01   4.000000E-01   4.000000E-01   4.000000E-01   4.000000E-01   4.000000E-01   4.000000E-01   4.000000E-01   4.000000E-01   4.000000E-01   4.000000E-01   4.000000E-01   4.000000E-01   4.000000E-01   4.000000E-01   4.000000E-01   4.000000E-01   4.000000E-01   4.000000E-01   4.000000E-01   4.000000E-01   4.000000E-01   4.000000E-01   4.000000E-01   4.000000E-01   4.000000E-01   4.000000E-01   4.000000E-01   4.000000E-01   4.000000E-01   4.000000E-01   4.000000E-01   4.000000E-01   4.000000E-01   4.000000E-01   4.000000E-01   4.000000E-01   4.000000E-01   4.000000E-01   4.000000E-01   4.000000E-01   4.000000E-01   4.000000E-01   4.000000E-01   4.000000E-01   4.000000E-01   4.000000E-01   4.000000E-01   4.000000E-01   4.000000E-01   4.000000E-01   4.000000E-01   4.000000E-01   4.000000E-01   4.000000E-01   4.000000E-01   4.000000E-01   4.000000E-01   4.000000E-01   4.000000E-01   4.000000E-01   4.000000E-01   4.000000E-01   4.000000E-01   4.000000E-01   4.000000E-01   4.000000E-01   4.000000E-01   4.000000E-01   4.000000E-01   4.000000E-01   4.000000E-01   4.000000E-01   4.000000E-01   4.000000E-01   4.000000E-01   4.000000E-01   4.000000E-01   4.000000E-01   4.000000E-01   4.000000E-01   4.000000E-01   4.000000E-01   4.000000E-01   4.000000E-01   4.000000E-01   4.000000E-01   4.000000E-01   4.000000E-01   4.000000E-01   4.000000E-01   4.000000E-01   4.000000E-01   4.000000E-01   4.000000E-01   4.000000E-01   4.000000E-01   4.000000E-01   4.000000E-01   4.000000E-01   4.000000E-01   4.000000E-01   4.000000E-01   4.000000E-01   4.000000E-01   4.000000E-01   4.000000E-01   4.000000E-01   4.000000E-01   4.000000E-01   4.000000E-01   4.000000E-01   4.000000E-01   4.000000E-01   4.000000E-01   4.000000E-01   4.000000E-01   4.000000E-01   4.000000E-01   4.000000E-01   4.000000E-01   4.000000E-01   4.000000E-01   4.000000E-01   4.000000E-01   4.000000E-01   4.000000E-01   4.000000E-01   4.000000E-01   4.000000E-01   4.000000E-01   4.000000E-01   4.000000E-01   4.000000E-01   4.000000E-01   4.000000E-01   