<?xml version="1.0"?>
<!-- Time =  5.0073029269476887E-01s -->
<VTKFile type="PolyData" version="0.1" byte_order="LittleEndian">
<PolyData>
<Piece NumberOfPoints="0000002400" NumberOfVerts="0" NumberOfLines="0" NumberOfStrips="0" NumberOfPolys="0">
<Points>
<DataArray type="Float32" Name="Position" NumberOfComponents="3" format="ascii">
  1.177709E+00   1.995258E-01   0.000000E+00   1.980488E+00   1.982534E-01   0.000000E+00   2.784326E+00   1.991871E-01   0.000000E+00   3.184080E+00   1.990410E-01   0.000000E+00   4.503796E+00   1.989124E-01   0.000000E+00   4.907433E+00   1.984097E-01   0.000000E+00   5.801360E+00   1.994334E-01   0.000000E+00   7.512854E+00   5.164338E+00   0.000000E+00   2.909585E+00   1.298850E+01   0.000000E+00   3.327057E+00   1.108394E+01   0.000000E+00   4.107160E+00   1.651335E+01   0.000000E+00   6.567074E+00   1.557651E+01   0.000000E+00   2.170305E-01   1.945732E-01   0.000000E+00   1.577336E+00   2.000554E-01   0.000000E+00   2.384607E+00   1.993943E-01   0.000000E+00   2.984231E+00   5.454463E-01   0.000000E+00   3.995647E+00   1.980810E-01   0.000000E+00   4.706036E+00   5.433384E-01   0.000000E+00   5.383905E+00   1.991321E-01   0.000000E+00   6.469226E+00   4.104997E+00   0.000000E+00   4.674306E+00   1.612751E+01   0.000000E+00   4.478369E+00   1.478543E+01   0.000000E+00   4.252257E+00   1.609401E+01   0.000000E+00   7.398885E+00   7.502541E+00   0.000000E+00   3.331920E+00   1.372723E+01   0.000000E+00   6.848864E+00   9.721500E+00   0.000000E+00   3.932902E+00   1.428129E+01   0.000000E+00   6.385480E-01   1.999957E-01   0.000000E+00   1.781602E+00   5.439019E-01   0.000000E+00   2.181278E+00   5.434511E-01   0.000000E+00   3.585425E+00   1.993373E-01   0.000000E+00   4.249039E+00   5.062471E-01   0.000000E+00   5.145018E+00   5.192755E-01   0.000000E+00   6.708514E+00   3.551866E-01   0.000000E+00   7.276574E+00   8.388247E+00   0.000000E+00   3.760419E+00   1.387537E+01   0.000000E+00   7.117169E+00   4.216290E+00   0.000000E+00   6.792775E+00   5.933182E+00   0.000000E+00   3.367052E+00   1.304118E+01   0.000000E+00   6.097984E+00   1.259210E+01   0.000000E+00   3.284313E+00   1.218569E+01   0.000000E+00   1.991051E-01   5.891281E-01   0.000000E+00   9.255179E-01   5.092241E-01   0.000000E+00   1.582967E+00   8.895501E-01   0.000000E+00   2.584956E+00   5.448155E-01   0.000000E+00   3.791934E+00   5.414594E-01   0.000000E+00   4.450608E+00   8.506742E-01   0.000000E+00   6.206173E+00   1.994955E-01   0.000000E+00   6.977123E+00   4.698150E+00   0.000000E+00   7.267312E+00   9.669215E+00   0.000000E+00   5.342826E+00   1.678293E+01   0.000000E+00   4.360535E+00   1.438423E+01   0.000000E+00   3.669509E+00   1.228860E+01   0.000000E+00   4.388525E+00   1.116741E+01   0.000000E+00   5.765666E+00   1.204138E+01   0.000000E+00   7.996602E+00   8.428718E+00   0.000000E+00   5.797327E-01   7.094824E-01   0.000000E+00   1.355500E+00   5.573180E-01   0.000000E+00   1.982451E+00   8.901466E-01   0.000000E+00   3.383588E+00   5.447345E-01   0.000000E+00   4.046024E+00   8.500233E-01   0.000000E+00   6.012597E+00   5.507711E-01   0.000000E+00   6.431910E+00   6.437289E-01   0.000000E+00   7.752850E+00   1.496080E+01   0.000000E+00   7.662503E+00   1.540952E+01   0.000000E+00   3.560485E+00   1.269234E+01   0.000000E+00   4.404816E+00   1.158220E+01   0.000000E+00   4.426552E+00   1.200168E+01   0.000000E+00   4.565496E+00   1.657868E+01   0.000000E+00   3.843361E+00   1.581825E+01   0.000000E+00   4.441169E+00   1.548055E+01   0.000000E+00   1.994342E-01   9.842689E-01   0.000000E+00   9.258814E-01   9.090500E-01   0.000000E+00   1.262007E+00   1.125147E+00   0.000000E+00   2.382229E+00   8.883883E-01   0.000000E+00   3.184299E+00   8.916723E-01   0.000000E+00   5.591174E+00   5.406803E-01   0.000000E+00   6.185834E+00   9.586004E-01   0.000000E+00   7.749137E+00   1.301060E+01   0.000000E+00   7.894248E+00   1.353105E+01   0.000000E+00   7.960667E+00   1.569081E+01   0.000000E+00   6.131224E+00   1.713948E+01   0.000000E+00   6.603762E+00   1.707345E+01   0.000000E+00   4.275146E+00   1.060295E+01   0.000000E+00   4.060477E+00   1.093638E+01   0.000000E+00   5.476076E+00   1.313280E+01   0.000000E+00   5.791990E-01   1.109230E+00   0.000000E+00   9.163209E-01   1.323749E+00   0.000000E+00   1.626943E+00   1.291327E+00   0.000000E+00   2.782226E+00   8.936492E-01   0.000000E+00   4.944318E+00   8.642145E-01   0.000000E+00   5.792314E+00   8.861603E-01   0.000000E+00   6.454138E+00   1.917815E+00   0.000000E+00   7.637717E+00   1.038966E+01   0.000000E+00   7.357788E+00   9.084395E+00   0.000000E+00   7.692424E+00   1.448006E+01   0.000000E+00   7.790010E+00   1.705151E+01   0.000000E+00   5.441554E+00   1.440296E+01   0.000000E+00   5.370245E+00   1.739847E+01   0.000000E+00   1.987949E-01   1.379355E+00   0.000000E+00   5.704163E-01   1.523155E+00   0.000000E+00   1.262327E+00   1.524235E+00   0.000000E+00   2.037638E+00   1.286161E+00   0.000000E+00   3.590646E+00   8.862396E-01   0.000000E+00   5.350631E+00   8.615155E-01   0.000000E+00   5.943865E+00   1.276432E+00   0.000000E+00   7.680966E+00   8.140347E+00   0.000000E+00   6.862991E+00   1.460081E+01   0.000000E+00   7.562133E+00   1.143602E+01   0.000000E+00   4.999408E+00   1.255869E+01   0.000000E+00   5.432429E+00   1.511359E+01   0.000000E+00   1.988915E-01   1.774498E+00   0.000000E+00   9.159431E-01   1.723220E+00   0.000000E+00   1.607377E+00   1.724847E+00   0.000000E+00   2.442661E+00   1.282614E+00   0.000000E+00   4.688340E+00   1.171190E+00   0.000000E+00   5.549918E+00   1.207246E+00   0.000000E+00   7.041250E+00   7.232752E+00   0.000000E+00   6.284286E+00   5.759114E+00   0.000000E+00   7.403914E+00   1.572673E+01   0.000000E+00   6.800066E+00   1.666924E+01   0.000000E+00   7.439749E+00   1.679548E+01   0.000000E+00   3.875412E+00   1.301340E+01   0.000000E+00   5.652564E+00   1.243346E+01   0.000000E+00   5.395987E+00   1.274275E+01   0.000000E+00   3.921325E+00   1.541702E+01   0.000000E+00   1.993503E-01   2.169228E+00   0.000000E+00   5.695145E-01   1.922418E+00   0.000000E+00   9.147951E-01   2.122691E+00   0.000000E+00   1.606665E+00   2.124097E+00   0.000000E+00   3.392904E+00   1.232940E+00   0.000000E+00   5.147293E+00   1.208427E+00   0.000000E+00   6.398199E+00   2.685728E+00   0.000000E+00   6.108208E+00   3.017837E+00   0.000000E+00   7.577291E+00   8.710505E+00   0.000000E+00   7.400187E+00   1.639816E+01   0.000000E+00   7.678595E+00   1.182293E+01   0.000000E+00   6.973763E+00   1.629790E+01   0.000000E+00   7.967563E+00   1.211638E+01   0.000000E+00   3.996060E+00   1.146748E+01   0.000000E+00   4.213121E+00   1.274772E+01   0.000000E+00   3.924997E+00   1.191321E+01   0.000000E+00   5.008025E+00   1.717052E+01   0.000000E+00   1.997869E-01   2.562429E+00   0.000000E+00   5.684640E-01   2.321757E+00   0.000000E+00   1.261117E+00   1.923735E+00   0.000000E+00   2.858394E+00   1.286948E+00   0.000000E+00   3.844605E+00   1.194871E+00   0.000000E+00   6.112841E+00   1.639625E+00   0.000000E+00   6.869733E+00   5.151395E+00   0.000000E+00   7.848585E+00   7.043562E+00   0.000000E+00   5.832561E+00   2.354671E+00   0.000000E+00   5.994423E+00   3.734796E+00   0.000000E+00   7.115760E+00   1.010179E+01   0.000000E+00   6.448177E+00   1.466195E+01   0.000000E+00   7.886438E+00   1.666034E+01   0.000000E+00   4.658481E+00   1.289992E+01   0.000000E+00   4.421187E+00   1.328948E+01   0.000000E+00   7.600041E+00   9.409873E+00   0.000000E+00   2.019345E-01   2.953810E+00   0.000000E+00   5.672795E-01   2.720873E+00   0.000000E+00   9.142759E-01   2.522227E+00   0.000000E+00   2.004028E+00   1.684496E+00   0.000000E+00   3.155738E+00   1.553816E+00   0.000000E+00   4.247754E+00   1.194856E+00   0.000000E+00   5.350019E+00   1.553339E+00   0.000000E+00   6.077464E+00   2.041368E+00   0.000000E+00   5.699930E+00   1.747399E+00   0.000000E+00   5.441831E+00   2.058718E+00   0.000000E+00   7.321892E+00   6.552087E+00   0.000000E+00   7.424317E+00   1.099589E+01   0.000000E+00   7.690278E+00   1.605432E+01   0.000000E+00   4.958555E+00   1.664305E+01   0.000000E+00   4.905296E+00   1.199294E+01   0.000000E+00   5.727260E+00   1.572530E+01   0.000000E+00   3.577405E+00   1.340876E+01   0.000000E+00   2.010099E-01   3.344856E+00   0.000000E+00   5.678541E-01   3.120008E+00   0.000000E+00   1.260332E+00   2.322948E+00   0.000000E+00   1.606081E+00   2.523021E+00   0.000000E+00   2.402913E+00   1.679285E+00   0.000000E+00   3.646593E+00   1.541946E+00   0.000000E+00   4.486031E+00   1.515589E+00   0.000000E+00   4.889731E+00   1.516507E+00   0.000000E+00   5.094327E+00   1.859893E+00   0.000000E+00   6.936087E+00   6.766314E+00   0.000000E+00   7.029552E+00   1.092674E+01   0.000000E+00   6.082179E+00   1.641203E+01   0.000000E+00   6.958420E+00   1.542401E+01   0.000000E+00   4.059707E+00   1.356333E+01   0.000000E+00   4.670967E+00   1.369337E+01   0.000000E+00   4.077787E+00   1.469716E+01   0.000000E+00   2.024022E-01   3.736640E+00   0.000000E+00   5.663594E-01   3.519222E+00   0.000000E+00   9.145620E-01   2.921338E+00   0.000000E+00   1.260412E+00   2.722086E+00   0.000000E+00   2.003564E+00   2.084165E+00   0.000000E+00   2.798176E+00   1.735273E+00   0.000000E+00   4.045970E+00   1.539891E+00   0.000000E+00   4.283863E+00   1.860232E+00   0.000000E+00   3.531735E+00   1.924366E+00   0.000000E+00   4.685414E+00   1.862398E+00   0.000000E+00   5.736810E+00   2.743351E+00   0.000000E+00   6.611575E+00   1.516596E+01   0.000000E+00   5.327945E+00   1.590526E+01   0.000000E+00   4.957134E+00   1.576875E+01   0.000000E+00   4.100304E+00   1.236733E+01   0.000000E+00   5.910549E+00   1.680495E+01   0.000000E+00   3.801896E+00   1.501472E+01   0.000000E+00   2.043265E-01   4.129164E+00   0.000000E+00   5.647256E-01   3.918088E+00   0.000000E+00   9.147459E-01   3.320589E+00   0.000000E+00   1.616691E+00   2.921851E+00   0.000000E+00   2.402568E+00   2.077705E+00   0.000000E+00   3.133477E+00   1.952271E+00  
[...]
<PointData Scalars="Diameter" Vectors="Velocity">
<DataArray type="Float32" Name="Diameter" format="ascii">
  4.000000E-01   4.000000E-01   4.000000E-01   4.000000E-01   4.000000E-01   4.000000E-01   4.000000E-01   4.000000E-01   4.000000E-01   4.000000E-01   4.000000E-01   4.000000E-01   4.000000E-01   4.000000E-01   4.000000E-01   4.000000E-01   4.000000E-01   4.000000E-01   4.000000E-01   4.000000E-01   4.000000E-01   4.000000E-01   4.000000E-01   4.000000E-01   4.000000E-01   4.000000E-01   4.000000E-01   4.000000E-01   4.000000E-01   4.000000E-01   4.000000E-01   4.000000E-01   4.000000E-01   4.000000E-01   4.000000E-01   4.000000E-01   4.000000E-01   4.000000E-01   4.000000E-01   4.000000E-01   4.000000E-01   4.000000E-01   4.000000E-01   4.000000E-01   4.000000E-01   4.000000E-01   4.000000E-01   4.000000E-01   4.000000E-01   4.000000E-01   4.000000E-01   4.000000E-01   4.000000E-01   4.000000E-01   4.000000E-01   4.000000E-01   4.000000E-01   4.000000E-01   4.000000E-01   4.000000E-01   4.000000E-01   4.000000E-01   4.000000E-01   4.000000E-01   4.000000E-01   4.000000E-01   4.000000E-01   4.000000E-01   4.000000E-01   4.000000E-01   4.000000E-01   4.000000E-01   4.000000E-01   4.000000E-01   4.000000E-01   4.000000E-01   4.000000E-01   4.000000E-01   4.000000E-01   4.000000E-01   4.000000E-01   4.000000E-01   4.000000E-01   4.000000E-01   4.000000E-01   4.000000E-01   4.000000E-01   4.000000E-01   4.000000E-01   4.000000E-01   4.000000E-01   4.000000E-01   4.000000E-01   4.000000E-01   4.000000E-01   4.000000E-01   4.000000E-01   4.000000E-01   4.000000E-01   4.000000E-01   4.000000E-01   4.000000E-01   4.000000E-01   4.000000E-01   4.000000E-01   4.000000E-01   4.000000E-01   4.000000E-01   4.000000E-01   4.000000E-01   4.000000E-01   4.000000E-01   4.000000E-01   4.000000E-01   4.000000E-01   4.000000E-01   4.000000E-01   4.000000E-01   4.000000E-01   4.000000E-01   4.000000E-01   4.000000E-01   4.000000E-01   4.000000E-01   4.000000E-01   4.000000E-01   4.000000E-01   4.000000E-01   4.000000E-01   4.000000E-01   4.000000E-01   4.000000E-01   4.000000E-01   4.000000E-01   4.000000E-01   4.000000E-01   4.000000E-01   4.000000E-01   4.000000E-01   4.000000E-01   4.000000E-01   4.000000E-01   4.000000E-01   4.000000E-01   4.000000E-01   4.000000E-01   4.000000E-01   4.000000E-01   4.000000E-01   4.000000E-01   4.000000E-01   4.000000E-01   4.000000E-01   4.000000E-01   4.000000E-01   4.000000E-01   4.000000E-01   4.000000E-01   4.000000E-01   4.000000E-01   4.000000E-01   4.000000E-01   4.000000E-01   4.000000E-01   4.000000E-01   4.000000E-01   4.000000E-01   4.000000E-01   4.000000E-01   4.000000E-01   4.000000E-01   4.000000E-01   4.000000E-01   4.000000E-01   4.000000E-01   4.000000E-01   4.000000E-01   4.000000E-01   4.000000E-01   4.000000E-01   4.000000E-01   4.000000E-01   4.000000E-01   4.000000E-01   4.000000E-01   4.000000E-01   4.000000E-01   4.000000E-01   4.000000E-01   4.000000E-01   4.000000E-01   4.000000E-01   4.000000E-01   4.000000E-01   4.000000E-01   4.000000E-01   4.000000E-01   4.000000E-01   4.000000E-01   4.000000E-01   4.000000E-01   4.000000E-01   4.000000E-01   4.000000E-01   4.000000E-01   4.000000E-01   4.000000E-01   4.000000E-01   4.000000E-01   4.000000E-01   4.000000E-01   4.000000E-01   4.000000E-01   4.000000E-01   4.000000E-01   4.000000E-01   4.000000E-01   4.000000E-01   4.000000E-01   4.000000E-01   4.000000E-01   4.000000E-01   4.000000E-01   4.000000E-01   4.000000E-01   4.000000E-01   4.000000E-01   4.000000E-01   4.000000E-01   4.000000E-01   4.000000E-01   4.000000E-01   4.000000E-01   4.000000E-01   4.000000E-01   4.000000E-01   4.000000E-01   4.000000E-01   4.000000E-01   4.000000E-01   4.000000E-01   4.000000E-01   4.000000E-01   4.000000E-01   4.000000E-01   4.000000E-01   4.000000E-01   4.000000E-01   4.000000E-01   4.000000E-01   4.000000E-01   4.000000E-01   4.000000E-01   4.000000E-01   4.000000E-01   4.000000E-01   4.000000E-01   4.000000E-01   4.000000E-01   4.000000E-01   4.000000E-01   4.000000E-01   4.000000E-01   4.000000E-01   4.000000E-01   4.000000E-01   4.000000E-01   4.000000E-01   4.000000E-01   4.000000E-01   4.000000E-01   4.000000E-01   4.000000E-01   4.000000E-01   4.000000E-01   4.000000E-01   4.000000E-01   4.000000E-01   4.000000E-01   4.000000E-01   4.000000E-01   4.000000E-01   4.000000E-01   4.000000E-01   4.000000E-01   4.000000E-01   4.000000E-01   4.000000E-01   4.000000E-01   4.000000E-01   4.000000E-01   4.000000E-01   4.000000E-01   4.000000E-01   4.000000E-01   4.000000E-01   4.000000E-01   4.000000E-01   4.000000E-01   4.000000E-01   4.000000E-01   4.000000E-01   4.000000E-01   4.000000E-01   4.000000E-01   4.000000E-01   4.000000E-01   4.000000E-01   4.000000E-01   4.000000E-01   4.000000E-01   4.000000E-01   4.000000E-01   4.000000E-01   4.000000E-01   4.000000E-01   4.000000E-01   4.000000E-01   4.000000E-01   4.000000E-01   4.000000E-01   4.000000E-01   4.000000E-01   4.000000E-01   4.000000E-01   4.000000E-01   4.000000E-01   4.000000E-01   4.000000E-01   4.000000E-01   4.000000E-01   4.000000E-01   4.000000E-01   4.000000E-01   4.000000E-01   4.000000E-01   4.000000E-01   4.000000E-01   4.000000E-01   4.000000E-01   4.000000E-01   4.000000E-01   4.000000E-01   4.000000E-01   4.000000E-01   4.000000E-01   4.000000E-01   4.000000E-01   4.000000E-01   4.000000E-01   4.000000E-01   4.000000E-01   4.000000E-01   4.000000E-01   4.000000E-01   4.000000E-01   4.000000E-01   4.000000E-01   4.000000E-01   4.000000E-01   4.000000E-01   4.000000E-01   4.000000E-01   4.000000E-01   4.000000E-01   4.000000E-01   4.000000E-01   4.000000E-01   4.000000E-01   4.000000E-01   4.000000E-01   4.000000E-01   4.000000E-01   4.000000E-01   4.000000E-01   4.000000E-01   4.000000E-01   4.000000E-01   4.000000E-01   4.000000E-01   4.000000E-01   4.000000E-01   4.000000E-01   4.000000E-01   4.000000E-01   4.000000E-01   4.000000E-01   4.000000E-01   4.000000E-01   4.000000E-01   4.000000E-01   4.000000E-01   4.000000E-01   4.000000E-01   4.000000E-01   4.000000E-01   4.000000E-01   4.000000E-01   4.000000E-01   4.000000E-01   4.000000E-01   4.000000E-01   4.000000E-01   4.000000E-01   4.000000E-01   4.000000E-01   4.000000E-01   4.000000E-01   4.000000E-01   4.000000E-01   4.000000E-01   4.000000E-01   4.000000E-01   4.000000E-01   4.000000E-01   4.000000E-01   4.000000E-01   4.000000E-01   4.000000E-01   4.000000E-01   4.000000E-01   4.000000E-01   4.000000E-01   4.000000E-01   4.000000E-01   4.000000E-01   4.000000E-01   4.000000E-01   4.000000E-01   4.000000E-01   4.000000E-01   4.000000E-01   4.000000E-01   4.000000E-01   4.000000E-01   4.000000E-01   4.000000E-01   4.000000E-01   4.000000E-01   4.000000E-01   4.000000E-01   4.000000E-01   4.000000E-01   4.000000E-01   4.000000E-01   4.000000E-01   4.000000E-01   4.000000E-01   4.000000E-01   4.000000E-01   4.000000E-01   4.000000E-01   4.000000E-01   4.000000E-01   4.000000E-01   4.000000E-01   4.000000E-01   4.000000E-01   4.000000E-01   4.000000E-01   4.000000E-01   4.000000E-01   4.000000E-01   4.000000E-01   4.000000E-01   4.000000E-01   4.000000E-01   4.000000E-01   4.000000E-01   4.000000E-01   4.000000E-01   4.000000E-01   4.000000E-01   4.000000E-01   4.000000E-01   4.000000E-01   4.000000E-01   4.000000E-01   4.000000E-01   4.000000E-01   4.000000E-01   4.000000E-01   4.000000E-01   4.000000E-01   4.000000E-01   4.000000E-01   4.000000E-01   4.000000E-01   4.000000E-01   4.000000E-01   4.000000E-01   4.000000E-01   4.000000E-01   4.000000E-01   4.000000E-01   4.000000E-01   4.000000E-01   4.000000E-01   4.000000E-01   4.000000E-01   4.000000E-01   4.000000E-01   4.000000E-01   4.000000E-01   4.000000E-01   4.000000E-01   4.000000E-01   4.000000E-01   4.000000E-01   4.000000E-01   4.000000E-01   4.000000E-01   4.000000E-01   4.000000E-01   4.000000E-01   4.000000E-01   4.000000E-01   4.000000E-01   4.000000E-01   4.000000E-01   4.000000E-01   4.000000E-01   4.000000E-01   4.000000E-01   4.000000E-01   4.000000E-01   4.000000E-01   4.000000E-01   4.000000E-01   4.000000E-01   4.000000E-01   4.000000E-01   4.000000E-01   4.000000E-01   4.000000E-01   4.000000E-01   4.000000E-01   4.000000E-01   4.000000E-01   4.000000E-01   4.000000E-01   4.000000E-01   4.000000E-01   4.000000E-01   4.000000E-01   4.000000E-01   4.000000E-01   4.000000E-01   4.000000E-01   4.000000E-01   4.000000E-01   4.000000E-01   4.000000E-01   4.000000E-01   4.000000E-01   4.000000E-01   4.000000E-01   4.000000E-01   4.000000E-01   4.000000E-01   4.000000E-01   4.000000E-01   4.000000E-01   4.000000E-01   4.000000E-01   4.000000E-01   4.000000E-01   4.000000E-01   4.000000E-01   4.000000E-01   4.000000E-01   4.000000E-01   4.000000E-01   4.000000E-01   4.000000E-01   4.000000E-01   4.000000E-01   4.000000E-01   4.000000E-01   4.000000E-01   4.000000E-01   4.000000E-01   4.000000E-01   4.000000E-01   4.000000E-01   4.000000E-01   4.000000E-01   4.000000E-01   4.000000E-01   4.000000E-01   4.000000E-01   4.000000E-01   4.000000E-01   4.000000E-01   4.000000E-01   4.000000E-01   4.000000E-01   4.000000E-01   4.000000E-01   4.000000E-01   4.000000E-01   4.000000E-01   4.000000E-01   4.000000E-01   4.000000E-01   4.000000E-01   4.000000E-01   4.000000E-01   4.000000E-01   4.000000E-01   4.000000E-01   4.000000E-01   4.000000E-01   4.000000E-01   4.000000E-01   4.000000E-01   4.000000E-01   4.000000E-01   4.000000E-01   4.000000E-01   4.000000E-01   4.000000E-01   4.000000E-01   4.000000E-01   4.000000E-01   4.000000E-01   4.000000E-01   4.000000E-01   4.000000E-01   4.000000E-01   4.000000E-01   4.000000E-01   4.000000E-01   4.000000E-01   4.000000E-01   4.000000E-01   4.000000E-01   4.000000E-01   4.000000E-01   4.000000E-01   4.000000E-01   4.000000E-01   4.000000E-01   4.000000E-01   4.000000E-01   4.000000E-01   4.000000E-01   4.000000E-01   4.000000E-01   4.000000E-01   4.000000E-01   4.000000E-01   4.000000E-01   4.000000E-01   4.000000E-01   4.000000E-01   4.000000E-01   4.000000E-01   4.000000E-01   4.000000E-01   4.000000E-01   4.000000E-01   4.000000E-01   4.000000E-01   4.000000E-01   4.000000E-01   4.000000E-01   4.000000E-01   4.000000E-01   4.000000E-01   4.000000E-01   4.000000E-01   4.000000E-01   4.000000E-01   4.000000E-01   4.000000E-01   4.000000E-01   4.000000E-01   4.000000E-01   4.000000E-01   4.000000E-01   4.000000E-01   4.000000E-01   4.000000E-01   4.000000E-01   4.000000E-01   4.000000E-01   4.000000E-01   4.000000E-01   4.000000E-01   4.000000E-01   4.000000E-01   4.000000E-01   4.000000E-01   4.000000E-01   4.000000E-01   4.000000E-01   4.000000E-01   4.000000E-01   4.000000E-01   4.000000E-01   4.000000E-01   4.000000E-01   4.000000E-01   4.000000E-01   4.000000E-01   4.000000E-01   4.000000E-01   4.000000E-01   4.000000E-01   4.000000E-01   4.000000E-01   4.000000E-01   4.000000E-01   4.000000E-01   4.000000E-01   4.000000E-01   4.000000E-01   4.000000E-01   4.000000E-01   4.000000E-01   4.000000E-01   4.000000E-01   4.000000E-01   4.000000E-01   4.000000E-01   4.000000E-01   4.000000E-01   4.000000E-01   4.000000E-01   4.000000E-01   4.000000E-01   4.000000E-01   4.000000E-01   4.000000E-01   4.000000E-01   4.000000E-01   4.000000E-01   4.000000E-01   4.000000E-01   4.000000E-01   4.000000E-01   4.000000E-01   4.000000E-01   4.000000E-01   4.000000E-01   4.000000E-01   4.000000E-01   4.000000E-01   4.000000E-01   4.000000E-01   4.000000E-01   4.000000E-01   4.000000E-01   4.000000E-01   4.000000E-01   4.000000E-01   4.000000E-01   4.000000E-01   4.000000E-01   4.000000E-01   4.000000E-01   4.000000E-01   4.000000E-01   4.000000E-01   4.000000E-01   4.000000E-01   4.000000E-01   4.000000E-01   4.000000E-01   4.000000E-01   4.000000E-01   4.000000E-01   4.000000E-01   4.000000E-01   4.000000E-01   4.000000E-01   4.000000E-01   4.000000E-01   4.000000E-01   4.000000E-01   4.000000E-01   4.000000E-01   4.000000E-01   4.000000E-01   4.000000E-01   4.000000E-01   4.000000E-01   4.000000E-01   4.000000E-01   4.000000E-01   4.000000E-01   4.000000E-01   4.000000E-01   4.000000E-01   4.000000E-01   4.000000E-01   4.000000E-01   4.000000E-01   4.000000E-01   4.000000E-01   4.000000E-01   4.000000E-01   4.000000E-01   4.000000E-01   4.000000E-01   4.000000E-01   4.000000E-01   4.000000E-01   4.000000E-01   4.000000E-01   4.000000E-01   4.000000E-01   4.000000E-01   4.000000E-01   4.000000E-01   4.000000E-01   4.000000E-01   4.000000E-01   4.000000E-01   4.000000E-01   4.000000E-01   4.000000E-01   4.000000E-01   4.000000E-01   4.000000E-01   4.000000E-01   4.000000E-01   4.000000E-01   4.000000E-01   4.000000E-01   4.000000E-01   4.000000E-01   4.000000E-01   4.000000E-01   4.000000E-01   4.000000E-01   4.000000E-01   4.000000E-01   4.000000E-01   4.000000E-01   4.000000E-01   4.000000E-01   4.000000E-01   4.000000E-01   4.000000E-01   4.000000E-01   4.000000E-01   4.000000E-01   4.000000E-01   4.000000E-01   4.000000E-01   4.000000E-01   4.000000E-01   4.000000E-01   4.000000E-01   4.000000E-01   4.000000E-01   4.000000E-01   4.000000E-01   4.000000E-01   4.000000E-01   4.000000E-01   4.000000E-01   4.000000E-01   4.000000E-01   4.000000E-01   4.000000E-01   4.000000E-01   4.000000E-01   4.000000E-01   4.000000E-01   4.000000E-01   4.000000E-01   4.000000E-01   4.000000E-01   4.000000E-01   4.000000E-01   4.000000E-01   4.000000E-01   4.000000E-01   4.000000E-01   4.000000E-01   4.000000E-01   4.000000E-01   4.000000E-01   4.000000E-01   4.000000E-01   4.000000E-01   4.000000E-01   4.000000E-01   4.000000E-01   4.000000E-01   4.000000E-01   4.000000E-01   4.000000E-01   4.000000E-01   4.000000E-01   4.000000E-01   4.000000E-01   4.000000E-01   4.000000E-01   4.000000E-01   4.000000E-01   4.000000E-01   4.000000E-01   4.000000E-01   4.000000E-01   4.000000E-01   4.000000E-01   4.000000E-01   4.000000E-01   4.000000E-01   4.000000E-01   4.000000E-01   4.000000E-01   4.000000E-01   4.000000E-01   4.000000E-01   4.000000E-01   4.000000E-01   4.000000E-01   4.000000E-01   4.000000E-01   4.000000E-01   4.000000E-01   4.000000E-01   4.000000E-01   4.000000E-01   4.000000E-01   4.000000E-01   4.000000E-01   4.000000E-01   4.000000E-01   4.000000E-01   4.000000E-01   4.000000E-01   4.000000E-01   4.000000E-01   4.000000E-01   4.000000E-01   4.000000E-01   4.000000E-01   4.000000E-01   4.000000E-01   4.000000E-01   4.000000E-01   4.000000E-01   4.000000E-01   4.000000E-01   4.000000E-01   4.000000E-01   4.000000E-01   4.000000E-01   4.000000E-01   4.000000E-01   4.000000E-01   4.000000E-01   4.000000E-01   4.000000E-01   4.000000E-01   4.000000E-01   4.000000E-01   4.000000E-01   4.000000E-01   4.000000E-01   4.000000E-01   4.000000E-01   4.000000E-01   4.000000E-01   4.000000E-01   4.000000E-01   4.000000E-01   4.000000E-01   4.000000E-01   4.000000E-01   4.000000E-01   4.000000E-01   4.000000E-01   4.000000E-01   4.000000E-01   4.000000E-01   4.000000E-01   4.000000E-01   4.000000E-01   4.000000E-01   4.000000E-01   4.000000E-01   4.000000E-01   4.000000E-01   4.000000E-01   4.000000E-01   4.000000E-01   4.000000E-01   4.000000E-01   4.000000E-01   4.000000E-01   4.000000E-01   4.000000E-01   4.000000E-01   4.000000E-01   4.000000E-01   4.000000E-01   4.000000E-01   4.000000E-01   4.000000E-01   4.000000E-01   4.000000E-01   4.000000E-01   4.000000E-01   4.000000E-01   4.000000E-01   4.000000E-01   4.000000E-01   4.000000E-01   4.000000E-01   4.000000E-01   4.000000E-01   4.000000E-01   4.000000E-01   4.000000E-01   4.000000E-01   4.000000E-01   4.000000E-01   4.000000E-01   4.000000E-01   4.000000E-01   4.000000E-01   4.000000E-01   4.000000E-01   4.000000E-01   4.000000E-01   4.000000E-01   4.000000E-01   4.000000E-01   4.000000E-01   4.000000E-01   4.000000E-01   4.000000E-01   4.000000E-01   4.000000E-01   4.000000E-01   4.000000E-01   4.000000E-01   4.000000E-01   4.000000E-01   4.000000E-01   4.000000E-01   4.000000E-01   4.000000E-01   4.000000E-01   4.000000E-01   4.000000E-01   4.000000E-01   4.000000E-01   4.000000E-01   4.000000E-01   4.000000E-01   4.000000E-01   4.000000E-01   4.000000E-01   4.000000E-01   4.000000E-01   4.000000E-01   4.000000E-01   4.000000E-01   4.000000E-01   4.000000E-01   4.000000E-01   4.000000E-01   4.000000E-01   4.000000E-01   4.000000E-01   4.000000E-01   4.000000E-01   4.000000E-01   4.000000E-01   4.000000E-01   4.000000E-01   4.000000E-01   4.000000E-01   4.000000E-01   4.000000E-01   4.000000E-01   4.000000E-01   4.000000E-01   4.000000E-01   4.000000E-01   4.000000E-01   4.000000E-01   4.000000E-01   4.000000E-01   4.000000E-01   4.000000E-01   4.000000E-01   4.000000E-01   4.000000E-01   4.000000E-01   4.000000E-01   4.000000E-01   4.000000E-01   4.000000E-01   4.000000E-01   4.000000E-01   4.000000E-01   4.000000E-01   4.000000E-01   4.000000E-01   4.000000E-01   4.000000E-01   4.000000E-01   4.000000E-01   4.000000E-01   4.000000E-01   4.000000E-01   4.000000E-01   4.000000E-01   4.000000E-01   4.000000E-01   4.000000E-01   4.000000E-01   4.000000E-01   4.000000E-01   4.000000E-01   4.000000E-01   4.000000E-01   4.000000E-01   4.000000E-01   4.000000E-01   4.000000E-01   4.000000E-01   4.000000E-01   4.000000E-01   4.000000E-01   4.000000E-01   4.000000E-01   4.000000E-01   4.000000E-01   4.000000E-01   4.000000E-01   4.000000E-01   4.000000E-01   4.000000E-01   4.000000E-01   4.000000E-01   4.000000E-01   4.000000E-01   4.000000E-01   4.000000E-01   4.000000E-01   4.000000E-01   4.000000E-01   4.000000E-01   4.000000E-01   4.000000E-01   4.000000E-01   4.000000E-01   4.000000E-01   4.000000E-01   4.000000E-01   4.000000E-01   4.000000E-01   4.000000E-01   4.000000E-01   4.000000E-01   4.000000E-01   4.000000E-01   4.000000E-01   4.000000E-01   4.000000E-01   4.000000E-01   4.000000E-01   4.000000E-01   4.000000E-01   4.000000E-01   4.000000E-01   4.000000E-01   4.000000E-01   4.000000E-01   4.000000E-01   4.000000E-01   4.000000E-01   4.000000E-01   4.000000E-01   4.000000E-01   4.000000E-01   4.000000E-01   4.000000E-01   4.000000E-01   4.000000E-01   4.000000E-01   4.000000E-01   4.000000E-01   4.000000E-01   4.000000E-01   4.000000E-01   4.000000E-01   4.000000E-01   4.000000E-01   4.000000E-01   4.000000E-01   4.000000E-01   4.000000E-01   4.000000E-01   4.000000E-01   4.000000E-01   4.000000E-01   4.000000E-01   4.000000E-01   4.000000E-01   4.000000E-01   4.000000E-01   4.000000E-01   4.000000E-01   4.000000E-01   4.000000E-01   4.000000E-01   4.000000E-01   4.000000E-01   4.000000E-01   4.000000E-01   4.000000E-01   4.000000E-01   4.000000E-01   4.000000E-01   4.000000E-01   4.000000E-01   4.000000E-01   4.000000E-01   4.000000E-01   4.000000E-01   4.000000E-01   4.000000E-01   4.000000E-01   4.000000E-01   4.000000E-01   4.000000E-01   4.000000E-01   4.000000E-01   4.000000E-01   4.000000E-01   4.000000E-01   4.000000E-01   4.000000E-01   4.000000E-01   4.000000E-01   4.000000E-01   4.000000E-01   4.000000E-01   4.000000E-01   4.000000E-01   4.000000E-01   4.000000E-01   4.000000E-01   4.000000E-01   4.000000E-01   4.000000E-01   4.000000E-01   4.000000E-01   4.000000E-01   4.000000E-01   4.000000E-01   4.000000E-01   4.000000E-01   4.000000E-01   4.000000E-01   4.000000E-01   4.000000E-01   4.000000E-01   4.000000E-01   4.000000E-01   4.000000E-01   4.000000E-01   4.000000E-01   4.000000E-01   4.000000E-01   4.000000E-01   4.000000E-01   4.000000E-01   4.000000E-01   4.000000E-01   4.000000E-01   4.000000E-01   4.000000E-01   4.000000E-01   4.000000E-01   4.000000E-01   4.000000E-01   4.000000E-01   4.000000E-01   4.000000E-01   4.000000E-01   4.000000E-01   4.000000E-01   4.000000E-01   4.000000E-01   4.000000E-01   4.000000E-01   4.000000E-01   4.000000E-01   4.000000E-01   4.000000E-01   4.000000E-01   4.000000E-01   4.000000E-01   4.000000E-01   4.000000E-01   4.000000E-01   4.000000E-01   4.000000E-01   4.000000E-01   4.000000E-01   4.000000E-01   4.000000E-01   4.000000E-01   4.000000E-01   4.000000E-01   4.000000E-01   4.000000E-01   4.000000E-01   4.000000E-01   4.000000E-01   4.000000E-01   4.000000E-01   4.000000E-01   4.000000E-01   