<?xml version="1.0"?>
<!-- Time =  9.0005029269477022E-01s -->
<VTKFile type="PolyData" version="0.1" byte_order="LittleEndian">
<PolyData>
<Piece NumberOfPoints="0000002400" NumberOfVerts="0" NumberOfLines="0" NumberOfStrips="0" NumberOfPolys="0">
<Points>
<DataArray type="Float32" Name="Position" NumberOfComponents="3" format="ascii">
  1.402608E+00   1.998326E-01   0.000000E+00   2.439839E+00   2.000326E-01   0.000000E+00   3.782867E+00   1.987514E-01   0.000000E+00   4.582045E+00   1.995235E-01   0.000000E+00   6.691644E+00   5.160072E+00   0.000000E+00   6.918427E+00   1.029620E+01   0.000000E+00   7.533609E+00   1.894519E+01   0.000000E+00   4.989408E+00   1.905200E+01   0.000000E+00   4.829046E+00   9.130223E+00   0.000000E+00   5.235694E+00   9.897895E+00   0.000000E+00   2.320688E+00   1.804789E+01   0.000000E+00   5.663244E+00   2.825701E+01   0.000000E+00   2.014250E-01   1.977713E-01   0.000000E+00   2.017354E+00   1.975294E-01   0.000000E+00   2.854825E+00   1.973095E-01   0.000000E+00   4.182581E+00   1.995464E-01   0.000000E+00   6.664816E+00   3.490594E-01   0.000000E+00   7.272848E+00   9.493178E+00   0.000000E+00   3.566210E+00   1.886055E+01   0.000000E+00   6.954481E+00   2.425224E+01   0.000000E+00   3.335696E+00   2.142322E+01   0.000000E+00   2.374142E+00   1.711668E+01   0.000000E+00   2.978454E+00   2.010998E+01   0.000000E+00   4.034082E+00   9.786715E+00   0.000000E+00   5.523715E+00   2.282744E+01   0.000000E+00   3.751154E+00   1.196361E+01   0.000000E+00   6.020561E-01   1.993026E-01   0.000000E+00   2.224950E+00   5.372346E-01   0.000000E+00   2.652738E+00   5.403778E-01   0.000000E+00   5.002515E+00   1.990984E-01   0.000000E+00   6.937654E+00   3.560757E+00   0.000000E+00   7.668585E+00   1.719480E+01   0.000000E+00   6.411350E+00   2.044462E+01   0.000000E+00   7.090238E+00   2.220210E+01   0.000000E+00   3.272465E+00   1.287245E+01   0.000000E+00   4.018933E+00   1.105874E+01   0.000000E+00   5.309655E+00   2.579925E+01   0.000000E+00   5.160796E+00   1.076001E+01   0.000000E+00   6.988301E+00   2.711288E+01   0.000000E+00   1.987969E-01   5.957789E-01   0.000000E+00   1.001833E+00   1.982158E-01   0.000000E+00   1.747491E+00   8.519694E-01   0.000000E+00   3.255143E+00   1.992866E-01   0.000000E+00   5.848207E+00   2.061326E-01   0.000000E+00   6.258902E+00   4.976577E+00   0.000000E+00   6.720310E+00   1.674391E+01   0.000000E+00   6.004359E+00   2.350046E+01   0.000000E+00   7.597531E+00   2.890882E+01   0.000000E+00   3.756811E+00   2.695680E+01   0.000000E+00   2.543652E+00   1.847374E+01   0.000000E+00   4.202868E+00   1.069544E+01   0.000000E+00   2.946836E+00   1.506572E+01   0.000000E+00   4.958014E+00   2.466357E+01   0.000000E+00   7.825856E+00   2.226772E+01   0.000000E+00   5.973406E-01   5.984671E-01   0.000000E+00   1.712129E+00   4.539014E-01   0.000000E+00   2.436181E+00   8.748822E-01   0.000000E+00   4.792440E+00   5.386602E-01   0.000000E+00   7.176356E+00   3.980362E+00   0.000000E+00   5.680289E+00   1.928044E+01   0.000000E+00   6.878029E+00   2.865608E+01   0.000000E+00   6.974308E+00   2.927375E+01   0.000000E+00   4.753081E+00   1.247887E+01   0.000000E+00   3.588402E+00   2.017999E+01   0.000000E+00   3.246850E+00   1.432485E+01   0.000000E+00   4.470953E+00   2.540585E+01   0.000000E+00   3.046482E+00   1.467932E+01   0.000000E+00   2.643070E+00   1.619812E+01   0.000000E+00   1.990426E-01   9.940455E-01   0.000000E+00   9.959919E-01   5.964096E-01   0.000000E+00   1.385303E+00   6.821174E-01   0.000000E+00   3.052669E+00   5.438065E-01   0.000000E+00   4.381889E+00   5.461988E-01   0.000000E+00   5.221790E+00   1.832870E+01   0.000000E+00   6.528993E+00   4.492500E+00   0.000000E+00   7.033935E+00   2.755091E+01   0.000000E+00   7.937693E+00   2.819054E+01   0.000000E+00   7.665955E+00   2.960090E+01   0.000000E+00   5.074225E+00   2.917658E+01   0.000000E+00   5.383667E+00   2.943090E+01   0.000000E+00   2.886905E+00   1.683579E+01   0.000000E+00   3.668897E+00   1.276282E+01   0.000000E+00   4.509464E+00   2.474446E+01   0.000000E+00   5.984241E-01   9.974332E-01   0.000000E+00   9.977601E-01   9.948198E-01   0.000000E+00   2.084890E+00   1.066368E+00   0.000000E+00   3.519984E+00   4.986639E-01   0.000000E+00   7.715125E+00   1.305085E+01   0.000000E+00   6.387761E+00   2.413362E+01   0.000000E+00   6.264545E+00   2.259900E+01   0.000000E+00   7.289305E+00   2.854992E+01   0.000000E+00   6.853226E+00   2.985122E+01   0.000000E+00   4.104945E+00   2.466416E+01   0.000000E+00   4.133072E+00   2.731631E+01   0.000000E+00   7.779997E+00   2.727912E+01   0.000000E+00   6.633871E+00   2.312601E+01   0.000000E+00   1.997548E-01   1.392133E+00   0.000000E+00   5.992010E-01   1.396396E+00   0.000000E+00   1.387764E+00   1.080884E+00   0.000000E+00   2.842275E+00   8.925207E-01   0.000000E+00   5.417545E+00   2.016971E-01   0.000000E+00   4.731236E+00   1.772517E+01   0.000000E+00   6.207304E+00   2.764355E+01   0.000000E+00   6.780851E+00   2.568611E+01   0.000000E+00   7.659875E+00   2.684638E+01   0.000000E+00   7.118242E+00   2.767793E+00   0.000000E+00   4.369628E+00   2.326944E+01   0.000000E+00   4.226070E+00   2.618789E+01   0.000000E+00   6.702236E+00   2.470974E+01   0.000000E+00   1.998809E-01   1.790061E+00   0.000000E+00   9.987000E-01   1.393447E+00   0.000000E+00   1.739912E+00   1.269055E+00   0.000000E+00   3.317426E+00   8.422717E-01   0.000000E+00   7.074204E+00   6.920305E+00   0.000000E+00   6.186224E+00   1.949679E+01   0.000000E+00   4.465896E+00   1.305632E+01   0.000000E+00   6.648052E+00   2.900069E+01   0.000000E+00   5.798687E+00   2.929604E+01   0.000000E+00   6.644832E+00   2.950965E+01   0.000000E+00   3.773651E+00   1.237480E+01   0.000000E+00   4.472844E+00   2.426592E+01   0.000000E+00   3.920718E+00   2.297392E+01   0.000000E+00   3.400858E+00   1.353148E+01   0.000000E+00   2.001460E-01   2.188161E+00   0.000000E+00   5.996231E-01   1.795573E+00   0.000000E+00   9.993888E-01   1.792316E+00   0.000000E+00   1.740424E+00   1.670191E+00   0.000000E+00   5.206502E+00   5.422827E-01   0.000000E+00   7.150340E+00   1.072400E+01   0.000000E+00   5.528394E+00   1.527789E+01   0.000000E+00   7.421631E+00   2.257039E+01   0.000000E+00   6.328731E+00   2.925292E+01   0.000000E+00   6.762178E+00   2.608784E+01   0.000000E+00   6.039262E+00   2.897399E+01   0.000000E+00   6.858947E+00   2.668803E+01   0.000000E+00   3.989903E+00   1.304387E+01   0.000000E+00   3.182427E+00   1.942920E+01   0.000000E+00   3.578350E+00   1.473782E+01   0.000000E+00   4.444091E+00   2.582250E+01   0.000000E+00   1.996587E-01   2.586456E+00   0.000000E+00   5.998108E-01   2.194989E+00   0.000000E+00   1.388788E+00   1.480246E+00   0.000000E+00   3.982047E+00   5.452711E-01   0.000000E+00   6.251856E+00   2.005540E-01   0.000000E+00   4.837523E+00   1.952038E+01   0.000000E+00   7.845763E+00   2.574042E+00   0.000000E+00   4.339960E+00   1.625854E+01   0.000000E+00   7.964347E+00   1.818683E+01   0.000000E+00   5.833463E+00   2.394732E+01   0.000000E+00   5.510762E+00   2.787499E+01   0.000000E+00   7.430442E+00   2.993847E+01   0.000000E+00   3.686336E+00   2.064586E+01   0.000000E+00   2.782144E+00   1.734963E+01   0.000000E+00   7.422500E+00   2.927545E+01   0.000000E+00   6.134462E+00   2.303429E+01   0.000000E+00   2.054439E-01   2.984758E+00   0.000000E+00   5.996554E-01   2.594496E+00   0.000000E+00   9.997105E-01   2.191525E+00   0.000000E+00   2.432904E+00   1.272614E+00   0.000000E+00   4.594318E+00   8.857329E-01   0.000000E+00   6.787837E+00   6.056623E+00   0.000000E+00   3.983769E+00   1.498497E+01   0.000000E+00   4.849779E+00   1.852544E+01   0.000000E+00   7.151409E+00   1.399578E+01   0.000000E+00   6.298250E+00   2.509202E+01   0.000000E+00   7.185084E+00   2.961762E+01   0.000000E+00   3.649519E+00   2.334626E+01   0.000000E+00   2.865053E+00   1.970247E+01   0.000000E+00   4.267192E+00   2.693805E+01   0.000000E+00   3.600944E+00   1.090814E+01   0.000000E+00   1.993474E-01   3.383256E+00   0.000000E+00   6.050878E-01   2.994215E+00   0.000000E+00   1.389505E+00   1.879793E+00   0.000000E+00   1.741279E+00   2.069972E+00   0.000000E+00   3.114459E+00   1.186000E+00   0.000000E+00   6.063797E+00   5.541456E-01   0.000000E+00   7.497189E+00   6.490520E+00   0.000000E+00   5.965842E+00   2.932528E+00   0.000000E+00   7.740710E+00   1.182692E+01   0.000000E+00   5.811520E+00   2.495362E+01   0.000000E+00   4.947989E+00   2.800420E+01   0.000000E+00   6.168613E+00   2.834979E+01   0.000000E+00   3.553172E+00   1.316154E+01   0.000000E+00   3.372093E+00   1.393627E+01   0.000000E+00   2.489459E+00   1.662119E+01   0.000000E+00   3.071262E-01   3.767397E+00   0.000000E+00   5.991185E-01   3.394176E+00   0.000000E+00   9.995361E-01   2.591174E+00   0.000000E+00   1.389951E+00   2.279331E+00   0.000000E+00   2.085717E+00   1.469228E+00   0.000000E+00   3.718615E+00   8.455377E-01   0.000000E+00   6.466946E+00   7.022505E-01   0.000000E+00   6.292703E+00   1.672489E+00   0.000000E+00   5.632618E+00   5.487738E-01   0.000000E+00   6.836936E+00   8.177539E+00   0.000000E+00   4.631758E+00   1.516265E+01   0.000000E+00   5.931446E+00   2.795333E+01   0.000000E+00   3.888685E+00   2.572367E+01   0.000000E+00   3.332793E+00   2.083507E+01   0.000000E+00   3.776144E+00   1.389151E+01   0.000000E+00   4.853901E+00   2.839369E+01   0.000000E+00   4.152062E+00   1.223480E+01   0.000000E+00   6.381012E-01   3.991254E+00   0.000000E+00   8.838167E-01   3.675374E+00   0.000000E+00   1.005140E+00   2.990742E+00   0.000000E+00   1.742339E+00   2.470038E+00   0.000000E+00   2.799138E+00   1.431121E+00   0.000000E+00   4.181879E+00   8.923011E-01   0.000000E+00   3.514317E+00   1.188923E+00   0.000000E+00   3.917517E+00   1.192234E+00   0.000000E+00   4.393926E+00   1.231557E+00   0.000000E+00   5.997144E+00   1.349680E+00   0.000000E+00   6.520842E+00   8.469212E+00   0.000000E+00   7.497109E+00   2.171851E+01   0.000000E+00   5.811096E+00   2.660032E+01  
[...]
<PointData Scalars="Diameter" Vectors="Velocity">
<DataArray type="Float32" Name="Diameter" format="ascii">
  4.000000E-01   4.000000E-01   4.000000E-01   4.000000E-01   4.000000E-01   4.000000E-01   4.000000E-01   4.000000E-01   4.000000E-01   4.000000E-01   4.000000E-01   4.000000E-01   4.000000E-01   4.000000E-01   4.000000E-01   4.000000E-01   4.000000E-01   4.000000E-01   4.000000E-01   4.000000E-01   4.000000E-01   4.000000E-01   4.000000E-01   4.000000E-01   4.000000E-01   4.000000E-01   4.000000E-01   4.000000E-01   4.000000E-01   4.000000E-01   4.000000E-01   4.000000E-01   4.000000E-01   4.000000E-01   4.000000E-01   4.000000E-01   4.000000E-01   4.000000E-01   4.000000E-01   4.000000E-01   4.000000E-01   4.000000E-01   4.000000E-01   4.000000E-01   4.000000E-01   4.000000E-01   4.000000E-01   4.000000E-01   4.000000E-01   4.000000E-01   4.000000E-01   4.000000E-01   4.000000E-01   4.000000E-01   4.000000E-01   4.000000E-01   4.000000E-01   4.000000E-01   4.000000E-01   4.000000E-01   4.000000E-01   4.000000E-01   4.000000E-01   4.000000E-01   4.000000E-01   4.000000E-01   4.000000E-01   4.000000E-01   4.000000E-01   4.000000E-01   4.000000E-01   4.000000E-01   4.000000E-01   4.000000E-01   4.000000E-01   4.000000E-01   4.000000E-01   4.000000E-01   4.000000E-01   4.000000E-01   4.000000E-01   4.000000E-01   4.000000E-01   4.000000E-01   4.000000E-01   4.000000E-01   4.000000E-01   4.000000E-01   4.000000E-01   4.000000E-01   4.000000E-01   4.000000E-01   4.000000E-01   4.000000E-01   4.000000E-01   4.000000E-01   4.000000E-01   4.000000E-01   4.000000E-01   4.000000E-01   4.000000E-01   4.000000E-01   4.000000E-01   4.000000E-01   4.000000E-01   4.000000E-01   4.000000E-01   4.000000E-01   4.000000E-01   4.000000E-01   4.000000E-01   4.000000E-01   4.000000E-01   4.000000E-01   4.000000E-01   4.000000E-01   4.000000E-01   4.000000E-01   4.000000E-01   4.000000E-01   4.000000E-01   4.000000E-01   4.000000E-01   4.000000E-01   4.000000E-01   4.000000E-01   4.000000E-01   4.000000E-01   4.000000E-01   4.000000E-01   4.000000E-01   4.000000E-01   4.000000E-01   4.000000E-01   4.000000E-01   4.000000E-01   4.000000E-01   4.000000E-01   4.000000E-01   4.000000E-01   4.000000E-01   4.000000E-01   4.000000E-01   4.000000E-01   4.000000E-01   4.000000E-01   4.000000E-01   4.000000E-01   4.000000E-01   4.000000E-01   4.000000E-01   4.000000E-01   4.000000E-01   4.000000E-01   4.000000E-01   4.000000E-01   4.000000E-01   4.000000E-01   4.000000E-01   4.000000E-01   4.000000E-01   4.000000E-01   4.000000E-01   4.000000E-01   4.000000E-01   4.000000E-01   4.000000E-01   4.000000E-01   4.000000E-01   4.000000E-01   4.000000E-01   4.000000E-01   4.000000E-01   4.000000E-01   4.000000E-01   4.000000E-01   4.000000E-01   4.000000E-01   4.000000E-01   4.000000E-01   4.000000E-01   4.000000E-01   4.000000E-01   4.000000E-01   4.000000E-01   4.000000E-01   4.000000E-01   4.000000E-01   4.000000E-01   4.000000E-01   4.000000E-01   4.000000E-01   4.000000E-01   4.000000E-01   4.000000E-01   4.000000E-01   4.000000E-01   4.000000E-01   4.000000E-01   4.000000E-01   4.000000E-01   4.000000E-01   4.000000E-01   4.000000E-01   4.000000E-01   4.000000E-01   4.000000E-01   4.000000E-01   4.000000E-01   4.000000E-01   4.000000E-01   4.000000E-01   4.000000E-01   4.000000E-01   4.000000E-01   4.000000E-01   4.000000E-01   4.000000E-01   4.000000E-01   4.000000E-01   4.000000E-01   4.000000E-01   4.000000E-01   4.000000E-01   4.000000E-01   4.000000E-01   4.000000E-01   4.000000E-01   4.000000E-01   4.000000E-01   4.000000E-01   4.000000E-01   4.000000E-01   4.000000E-01   4.000000E-01   4.000000E-01   4.000000E-01   4.000000E-01   4.000000E-01   4.000000E-01   4.000000E-01   4.000000E-01   4.000000E-01   4.000000E-01   4.000000E-01   4.000000E-01   4.000000E-01   4.000000E-01   4.000000E-01   4.000000E-01   4.000000E-01   4.000000E-01   4.000000E-01   4.000000E-01   4.000000E-01   4.000000E-01   4.000000E-01   4.000000E-01   4.000000E-01   4.000000E-01   4.000000E-01   4.000000E-01   4.000000E-01   4.000000E-01   4.000000E-01   4.000000E-01   4.000000E-01   4.000000E-01   4.000000E-01   4.000000E-01   4.000000E-01   4.000000E-01   4.000000E-01   4.000000E-01   4.000000E-01   4.000000E-01   4.000000E-01   4.000000E-01   4.000000E-01   4.000000E-01   4.000000E-01   4.000000E-01   4.000000E-01   4.000000E-01   4.000000E-01   4.000000E-01   4.000000E-01   4.000000E-01   4.000000E-01   4.000000E-01   4.000000E-01   4.000000E-01   4.000000E-01   4.000000E-01   4.000000E-01   4.000000E-01   4.000000E-01   4.000000E-01   4.000000E-01   4.000000E-01   4.000000E-01   4.000000E-01   4.000000E-01   4.000000E-01   4.000000E-01   4.000000E-01   4.000000E-01   4.000000E-01   4.000000E-01   4.000000E-01   4.000000E-01   4.000000E-01   4.000000E-01   4.000000E-01   4.000000E-01   4.000000E-01   4.000000E-01   4.000000E-01   4.000000E-01   4.000000E-01   4.000000E-01   4.000000E-01   4.000000E-01   4.000000E-01   4.000000E-01   4.000000E-01   4.000000E-01   4.000000E-01   4.000000E-01   4.000000E-01   4.000000E-01   4.000000E-01   4.000000E-01   4.000000E-01   4.000000E-01   4.000000E-01   4.000000E-01   4.000000E-01   4.000000E-01   4.000000E-01   4.000000E-01   4.000000E-01   4.000000E-01   4.000000E-01   4.000000E-01   4.000000E-01   4.000000E-01   4.000000E-01   4.000000E-01   4.000000E-01   4.000000E-01   4.000000E-01   4.000000E-01   4.000000E-01   4.000000E-01   4.000000E-01   4.000000E-01   4.000000E-01   4.000000E-01   4.000000E-01   4.000000E-01   4.000000E-01   4.000000E-01   4.000000E-01   4.000000E-01   4.000000E-01   4.000000E-01   4.000000E-01   4.000000E-01   4.000000E-01   4.000000E-01   4.000000E-01   4.000000E-01   4.000000E-01   4.000000E-01   4.000000E-01   4.000000E-01   4.000000E-01   4.000000E-01   4.000000E-01   4.000000E-01   4.000000E-01   4.000000E-01   4.000000E-01   4.000000E-01   4.000000E-01   4.000000E-01   4.000000E-01   4.000000E-01   4.000000E-01   4.000000E-01   4.000000E-01   4.000000E-01   4.000000E-01   4.000000E-01   4.000000E-01   4.000000E-01   4.000000E-01   4.000000E-01   4.000000E-01   4.000000E-01   4.000000E-01   4.000000E-01   4.000000E-01   4.000000E-01   4.000000E-01   4.000000E-01   4.000000E-01   4.000000E-01   4.000000E-01   4.000000E-01   4.000000E-01   4.000000E-01   4.000000E-01   4.000000E-01   4.000000E-01   4.000000E-01   4.000000E-01   4.000000E-01   4.000000E-01   4.000000E-01   4.000000E-01   4.000000E-01   4.000000E-01   4.000000E-01   4.000000E-01   4.000000E-01   4.000000E-01   4.000000E-01   4.000000E-01   4.000000E-01   4.000000E-01   4.000000E-01   4.000000E-01   4.000000E-01   4.000000E-01   4.000000E-01   4.000000E-01   4.000000E-01   4.000000E-01   4.000000E-01   4.000000E-01   4.000000E-01   4.000000E-01   4.000000E-01   4.000000E-01   4.000000E-01   4.000000E-01   4.000000E-01   4.000000E-01   4.000000E-01   4.000000E-01   4.000000E-01   4.000000E-01   4.000000E-01   4.000000E-01   4.000000E-01   4.000000E-01   4.000000E-01   4.000000E-01   4.000000E-01   4.000000E-01   4.000000E-01   4.000000E-01   4.000000E-01   4.000000E-01   4.000000E-01   4.000000E-01   4.000000E-01   4.000000E-01   4.000000E-01   4.000000E-01   4.000000E-01   4.000000E-01   4.000000E-01   4.000000E-01   4.000000E-01   4.000000E-01   4.000000E-01   4.000000E-01   4.000000E-01   4.000000E-01   4.000000E-01   4.000000E-01   4.000000E-01   4.000000E-01   4.000000E-01   4.000000E-01   4.000000E-01   4.000000E-01   4.000000E-01   4.000000E-01   4.000000E-01   4.000000E-01   4.000000E-01   4.000000E-01   4.000000E-01   4.000000E-01   4.000000E-01   4.000000E-01   4.000000E-01   4.000000E-01   4.000000E-01   4.000000E-01   4.000000E-01   4.000000E-01   4.000000E-01   4.000000E-01   4.000000E-01   4.000000E-01   4.000000E-01   4.000000E-01   4.000000E-01   4.000000E-01   4.000000E-01   4.000000E-01   4.000000E-01   4.000000E-01   4.000000E-01   4.000000E-01   4.000000E-01   4.000000E-01   4.000000E-01   4.000000E-01   4.000000E-01   4.000000E-01   4.000000E-01   4.000000E-01   4.000000E-01   4.000000E-01   4.000000E-01   4.000000E-01   4.000000E-01   4.000000E-01   4.000000E-01   4.000000E-01   4.000000E-01   4.000000E-01   4.000000E-01   4.000000E-01   4.000000E-01   4.000000E-01   4.000000E-01   4.000000E-01   4.000000E-01   4.000000E-01   4.000000E-01   4.000000E-01   4.000000E-01   4.000000E-01   4.000000E-01   4.000000E-01   4.000000E-01   4.000000E-01   4.000000E-01   4.000000E-01   4.000000E-01   4.000000E-01   4.000000E-01   4.000000E-01   4.000000E-01   4.000000E-01   4.000000E-01   4.000000E-01   4.000000E-01   4.000000E-01   4.000000E-01   4.000000E-01   4.000000E-01   4.000000E-01   4.000000E-01   4.000000E-01   4.000000E-01   4.000000E-01   4.000000E-01   4.000000E-01   4.000000E-01   4.000000E-01   4.000000E-01   4.000000E-01   4.000000E-01   4.000000E-01   4.000000E-01   4.000000E-01   4.000000E-01   4.000000E-01   4.000000E-01   4.000000E-01   4.000000E-01   4.000000E-01   4.000000E-01   4.000000E-01   4.000000E-01   4.000000E-01   4.000000E-01   4.000000E-01   4.000000E-01   4.000000E-01   4.000000E-01   4.000000E-01   4.000000E-01   4.000000E-01   4.000000E-01   4.000000E-01   4.000000E-01   4.000000E-01   4.000000E-01   4.000000E-01   4.000000E-01   4.000000E-01   4.000000E-01   4.000000E-01   4.000000E-01   4.000000E-01   4.000000E-01   4.000000E-01   4.000000E-01   4.000000E-01   4.000000E-01   4.000000E-01   4.000000E-01   4.000000E-01   4.000000E-01   4.000000E-01   4.000000E-01   4.000000E-01   4.000000E-01   4.000000E-01   4.000000E-01   4.000000E-01   4.000000E-01   4.000000E-01   4.000000E-01   4.000000E-01   4.000000E-01   4.000000E-01   4.000000E-01   4.000000E-01   4.000000E-01   4.000000E-01   4.000000E-01   4.000000E-01   4.000000E-01   4.000000E-01   4.000000E-01   4.000000E-01   4.000000E-01   4.000000E-01   4.000000E-01   4.000000E-01   4.000000E-01   4.000000E-01   4.000000E-01   4.000000E-01   4.000000E-01   4.000000E-01   4.000000E-01   4.000000E-01   4.000000E-01   4.000000E-01   4.000000E-01   4.000000E-01   4.000000E-01   4.000000E-01   4.000000E-01   4.000000E-01   4.000000E-01   4.000000E-01   4.000000E-01   4.000000E-01   4.000000E-01   4.000000E-01   4.000000E-01   4.000000E-01   4.000000E-01   4.000000E-01   4.000000E-01   4.000000E-01   4.000000E-01   4.000000E-01   4.000000E-01   4.000000E-01   4.000000E-01   4.000000E-01   4.000000E-01   4.000000E-01   4.000000E-01   4.000000E-01   4.000000E-01   4.000000E-01   4.000000E-01   4.000000E-01   4.000000E-01   4.000000E-01   4.000000E-01   4.000000E-01   4.000000E-01   4.000000E-01   4.000000E-01   4.000000E-01   4.000000E-01   4.000000E-01   4.000000E-01   4.000000E-01   4.000000E-01   4.000000E-01   4.000000E-01   4.000000E-01   4.000000E-01   4.000000E-01   4.000000E-01   4.000000E-01   4.000000E-01   4.000000E-01   4.000000E-01   4.000000E-01   4.000000E-01   4.000000E-01   4.000000E-01   4.000000E-01   4.000000E-01   4.000000E-01   4.000000E-01   4.000000E-01   4.000000E-01   4.000000E-01   4.000000E-01   4.000000E-01   4.000000E-01   4.000000E-01   4.000000E-01   4.000000E-01   4.000000E-01   4.000000E-01   4.000000E-01   4.000000E-01   4.000000E-01   4.000000E-01   4.000000E-01   4.000000E-01   4.000000E-01   4.000000E-01   4.000000E-01   4.000000E-01   4.000000E-01   4.000000E-01   4.000000E-01   4.000000E-01   4.000000E-01   4.000000E-01   4.000000E-01   4.000000E-01   4.000000E-01   4.000000E-01   4.000000E-01   4.000000E-01   4.000000E-01   4.000000E-01   4.000000E-01   4.000000E-01   4.000000E-01   4.000000E-01   4.000000E-01   4.000000E-01   4.000000E-01   4.000000E-01   4.000000E-01   4.000000E-01   4.000000E-01   4.000000E-01   4.000000E-01   4.000000E-01   4.000000E-01   4.000000E-01   4.000000E-01   4.000000E-01   4.000000E-01   4.000000E-01   4.000000E-01   4.000000E-01   4.000000E-01   4.000000E-01   4.000000E-01   4.000000E-01   4.000000E-01   4.000000E-01   4.000000E-01   4.000000E-01   4.000000E-01   4.000000E-01   4.000000E-01   4.000000E-01   4.000000E-01   4.000000E-01   4.000000E-01   4.000000E-01   4.000000E-01   4.000000E-01   4.000000E-01   4.000000E-01   4.000000E-01   4.000000E-01   4.000000E-01   4.000000E-01   4.000000E-01   4.000000E-01   4.000000E-01   4.000000E-01   4.000000E-01   4.000000E-01   4.000000E-01   4.000000E-01   4.000000E-01   4.000000E-01   4.000000E-01   4.000000E-01   4.000000E-01   4.000000E-01   4.000000E-01   4.000000E-01   4.000000E-01   4.000000E-01   4.000000E-01   4.000000E-01   4.000000E-01   4.000000E-01   4.000000E-01   4.000000E-01   4.000000E-01   4.000000E-01   4.000000E-01   4.000000E-01   4.000000E-01   4.000000E-01   4.000000E-01   4.000000E-01   4.000000E-01   4.000000E-01   4.000000E-01   4.000000E-01   4.000000E-01   4.000000E-01   4.000000E-01   4.000000E-01   4.000000E-01   4.000000E-01   4.000000E-01   4.000000E-01   4.000000E-01   4.000000E-01   4.000000E-01   4.000000E-01   4.000000E-01   4.000000E-01   4.000000E-01   4.000000E-01   4.000000E-01   4.000000E-01   4.000000E-01   4.000000E-01   4.000000E-01   4.000000E-01   4.000000E-01   4.000000E-01   4.000000E-01   4.000000E-01   4.000000E-01   4.000000E-01   4.000000E-01   4.000000E-01   4.000000E-01   4.000000E-01   4.000000E-01   4.000000E-01   4.000000E-01   4.000000E-01   4.000000E-01   4.000000E-01   4.000000E-01   4.000000E-01   4.000000E-01   4.000000E-01   4.000000E-01   4.000000E-01   4.000000E-01   4.000000E-01   4.000000E-01   4.000000E-01   4.000000E-01   4.000000E-01   4.000000E-01   4.000000E-01   4.000000E-01   4.000000E-01   4.000000E-01   4.000000E-01   4.000000E-01   4.000000E-01   4.000000E-01   4.000000E-01   4.000000E-01   4.000000E-01   4.000000E-01   4.000000E-01   4.000000E-01   4.000000E-01   4.000000E-01   4.000000E-01   4.000000E-01   4.000000E-01   4.000000E-01   4.000000E-01   4.000000E-01   4.000000E-01   4.000000E-01   4.000000E-01   4.000000E-01   4.000000E-01   4.000000E-01   4.000000E-01   4.000000E-01   4.000000E-01   4.000000E-01   4.000000E-01   4.000000E-01   4.000000E-01   4.000000E-01   4.000000E-01   4.000000E-01   4.000000E-01   4.000000E-01   4.000000E-01   4.000000E-01   4.000000E-01   4.000000E-01   4.000000E-01   4.000000E-01   4.000000E-01   4.000000E-01   4.000000E-01   4.000000E-01   4.000000E-01   4.000000E-01   4.000000E-01   4.000000E-01   4.000000E-01   4.000000E-01   4.000000E-01   4.000000E-01   4.000000E-01   4.000000E-01   4.000000E-01   4.000000E-01   4.000000E-01   4.000000E-01   4.000000E-01   4.000000E-01   4.000000E-01   4.000000E-01   4.000000E-01   4.000000E-01   4.000000E-01   4.000000E-01   4.000000E-01   4.000000E-01   4.000000E-01   4.000000E-01   4.000000E-01   4.000000E-01   4.000000E-01   4.000000E-01   4.000000E-01   4.000000E-01   4.000000E-01   4.000000E-01   4.000000E-01   4.000000E-01   4.000000E-01   4.000000E-01   4.000000E-01   4.000000E-01   4.000000E-01   4.000000E-01   4.000000E-01   4.000000E-01   4.000000E-01   4.000000E-01   4.000000E-01   4.000000E-01   4.000000E-01   4.000000E-01   4.000000E-01   4.000000E-01   4.000000E-01   4.000000E-01   4.000000E-01   4.000000E-01   4.000000E-01   4.000000E-01   4.000000E-01   4.000000E-01   4.000000E-01   4.000000E-01   4.000000E-01   4.000000E-01   4.000000E-01   4.000000E-01   4.000000E-01   4.000000E-01   4.000000E-01   4.000000E-01   4.000000E-01   4.000000E-01   4.000000E-01   4.000000E-01   4.000000E-01   4.000000E-01   4.000000E-01   4.000000E-01   4.000000E-01   4.000000E-01   4.000000E-01   4.000000E-01   4.000000E-01   4.000000E-01   4.000000E-01   4.000000E-01   4.000000E-01   4.000000E-01   4.000000E-01   4.000000E-01   4.000000E-01   4.000000E-01   4.000000E-01   4.000000E-01   4.000000E-01   4.000000E-01   4.000000E-01   4.000000E-01   4.000000E-01   4.000000E-01   4.000000E-01   4.000000E-01   4.000000E-01   4.000000E-01   4.000000E-01   4.000000E-01   4.000000E-01   4.000000E-01   4.000000E-01   4.000000E-01   4.000000E-01   4.000000E-01   4.000000E-01   4.000000E-01   4.000000E-01   4.000000E-01   4.000000E-01   4.000000E-01   4.000000E-01   4.000000E-01   4.000000E-01   4.000000E-01   4.000000E-01   4.000000E-01   4.000000E-01   4.000000E-01   4.000000E-01   4.000000E-01   4.000000E-01   4.000000E-01   4.000000E-01   4.000000E-01   4.000000E-01   4.000000E-01   4.000000E-01   4.000000E-01   4.000000E-01   4.000000E-01   4.000000E-01   4.000000E-01   4.000000E-01   4.000000E-01   4.000000E-01   4.000000E-01   4.000000E-01   4.000000E-01   4.000000E-01   4.000000E-01   4.000000E-01   4.000000E-01   4.000000E-01   4.000000E-01   4.000000E-01   4.000000E-01   4.000000E-01   4.000000E-01   4.000000E-01   4.000000E-01   4.000000E-01   4.000000E-01   4.000000E-01   4.000000E-01   4.000000E-01   4.000000E-01   4.000000E-01   4.000000E-01   4.000000E-01   4.000000E-01   4.000000E-01   4.000000E-01   4.000000E-01   4.000000E-01   4.000000E-01   4.000000E-01   4.000000E-01   4.000000E-01   4.000000E-01   4.000000E-01   4.000000E-01   4.000000E-01   4.000000E-01   4.000000E-01   4.000000E-01   4.000000E-01   4.000000E-01   4.000000E-01   4.000000E-01   4.000000E-01   4.000000E-01   4.000000E-01   4.000000E-01   4.000000E-01   4.000000E-01   4.000000E-01   4.000000E-01   4.000000E-01   4.000000E-01   4.000000E-01   4.000000E-01   4.000000E-01   4.000000E-01   4.000000E-01   4.000000E-01   4.000000E-01   4.000000E-01   4.000000E-01   4.000000E-01   4.000000E-01   4.000000E-01   4.000000E-01   4.000000E-01   4.000000E-01   4.000000E-01   4.000000E-01   4.000000E-01   4.000000E-01   4.000000E-01   4.000000E-01   4.000000E-01   4.000000E-01   4.000000E-01   4.000000E-01   4.000000E-01   4.000000E-01   4.000000E-01   4.000000E-01   4.000000E-01   4.000000E-01   4.000000E-01   4.000000E-01   4.000000E-01   4.000000E-01   4.000000E-01   4.000000E-01   4.000000E-01   4.000000E-01   4.000000E-01   4.000000E-01   4.000000E-01   4.000000E-01   4.000000E-01   4.000000E-01   4.000000E-01   4.000000E-01   4.000000E-01   4.000000E-01   4.000000E-01   4.000000E-01   4.000000E-01   4.000000E-01   4.000000E-01   4.000000E-01   4.000000E-01   4.000000E-01   4.000000E-01   4.000000E-01   4.000000E-01   4.000000E-01   4.000000E-01   4.000000E-01   4.000000E-01   4.000000E-01   4.000000E-01   4.000000E-01   4.000000E-01   4.000000E-01   4.000000E-01   4.000000E-01   4.000000E-01   4.000000E-01   4.000000E-01   4.000000E-01   4.000000E-01   4.000000E-01   4.000000E-01   4.000000E-01   4.000000E-01   4.000000E-01   4.000000E-01   4.000000E-01   4.000000E-01   4.000000E-01   4.000000E-01   4.000000E-01   4.000000E-01   4.000000E-01   4.000000E-01   4.000000E-01   4.000000E-01   4.000000E-01   4.000000E-01   4.000000E-01   4.000000E-01   4.000000E-01   4.000000E-01   4.000000E-01   4.000000E-01   4.000000E-01   4.000000E-01   4.000000E-01   4.000000E-01   4.000000E-01   4.000000E-01   4.000000E-01   4.000000E-01   4.000000E-01   4.000000E-01   4.000000E-01   4.000000E-01   4.000000E-01   4.000000E-01   4.000000E-01   4.000000E-01   4.000000E-01   4.000000E-01   4.000000E-01   4.000000E-01   4.000000E-01   4.000000E-01   4.000000E-01   4.000000E-01   4.000000E-01   4.000000E-01   4.000000E-01   4.000000E-01   4.000000E-01   4.000000E-01   4.000000E-01   4.000000E-01   4.000000E-01   4.000000E-01   4.000000E-01   4.000000E-01   4.000000E-01   4.000000E-01   4.000000E-01   4.000000E-01   4.000000E-01   4.000000E-01   4.000000E-01   4.000000E-01   4.000000E-01   4.000000E-01   4.000000E-01   4.000000E-01   4.000000E-01   4.000000E-01   4.000000E-01   4.000000E-01   4.000000E-01   4.000000E-01   4.000000E-01   4.000000E-01   4.000000E-01   4.000000E-01   4.000000E-01   4.000000E-01   4.000000E-01   4.000000E-01   4.000000E-01   4.000000E-01   4.000000E-01   4.000000E-01   4.000000E-01   4.000000E-01   4.000000E-01   4.000000E-01   4.000000E-01   4.000000E-01   4.000000E-01   4.000000E-01   4.000000E-01   4.000000E-01   4.000000E-01   4.000000E-01   4.000000E-01   4.000000E-01   4.000000E-01   4.000000E-01   4.000000E-01   4.000000E-01   4.000000E-01   4.000000E-01   4.000000E-01   4.000000E-01   