<?xml version="1.0"?>
<!-- Time =  4.0021029269476865E-01s -->
<VTKFile type="PolyData" version="0.1" byte_order="LittleEndian">
<PolyData>
<Piece NumberOfPoints="0000002400" NumberOfVerts="0" NumberOfLines="0" NumberOfStrips="0" NumberOfPolys="0">
<Points>
<DataArray type="Float32" Name="Position" NumberOfComponents="3" format="ascii">
  1.029218E+00   1.975355E-01   0.000000E+00   1.828142E+00   1.987609E-01   0.000000E+00   2.627311E+00   1.966559E-01   0.000000E+00   3.045242E+00   1.981840E-01   0.000000E+00   4.163337E+00   1.995015E-01   0.000000E+00   4.608194E+00   1.993177E-01   0.000000E+00   5.410884E+00   1.996475E-01   0.000000E+00   6.493787E+00   9.985721E-01   0.000000E+00   7.697961E+00   9.449760E+00   0.000000E+00   3.794671E+00   1.603097E+01   0.000000E+00   2.455715E+00   1.417181E+01   0.000000E+00   5.806366E+00   1.643656E+01   0.000000E+00   6.669988E+00   9.806551E+00   0.000000E+00   2.047546E-01   1.943547E-01   0.000000E+00   1.428518E+00   1.995014E-01   0.000000E+00   2.227957E+00   1.984805E-01   0.000000E+00   2.834125E+00   5.361332E-01   0.000000E+00   3.763502E+00   1.988127E-01   0.000000E+00   4.386097E+00   5.315326E-01   0.000000E+00   5.009472E+00   1.998153E-01   0.000000E+00   6.443402E+00   2.278201E-01   0.000000E+00   7.470478E+00   4.724132E+00   0.000000E+00   6.267580E+00   1.386984E+01   0.000000E+00   5.437975E+00   1.392832E+01   0.000000E+00   5.753563E+00   1.589046E+01   0.000000E+00   4.174128E+00   1.637880E+01   0.000000E+00   7.062490E+00   3.073248E+00   0.000000E+00   4.662169E+00   1.611434E+01   0.000000E+00   7.659737E+00   1.674251E+01   0.000000E+00   6.218798E-01   2.000535E-01   0.000000E+00   1.629161E+00   5.452547E-01   0.000000E+00   2.029199E+00   5.439342E-01   0.000000E+00   3.404285E+00   3.728313E-01   0.000000E+00   3.957388E+00   5.479688E-01   0.000000E+00   4.807908E+00   5.452896E-01   0.000000E+00   6.041571E+00   1.997304E-01   0.000000E+00   6.787607E+00   1.471863E+00   0.000000E+00   4.963794E+00   1.511252E+01   0.000000E+00   4.300097E+00   1.592984E+01   0.000000E+00   4.676301E+00   9.994659E+00   0.000000E+00   3.614498E+00   1.545641E+01   0.000000E+00   7.023712E+00   5.792677E+00   0.000000E+00   1.977372E-01   5.889043E-01   0.000000E+00   8.918137E-01   5.707804E-01   0.000000E+00   1.592386E+00   9.431520E-01   0.000000E+00   2.429733E+00   5.436369E-01   0.000000E+00   3.597518E+00   7.225417E-01   0.000000E+00   4.184544E+00   8.766531E-01   0.000000E+00   5.726066E+00   4.457143E-01   0.000000E+00   6.229158E+00   5.662035E-01   0.000000E+00   6.701962E+00   3.403346E+00   0.000000E+00   7.414773E+00   7.409625E+00   0.000000E+00   6.258044E+00   1.436617E+01   0.000000E+00   7.750702E+00   1.615908E+01   0.000000E+00   4.774238E+00   1.546007E+01   0.000000E+00   3.595521E+00   1.484172E+01   0.000000E+00   3.398090E+00   1.289561E+01   0.000000E+00   4.442859E+00   1.033241E+01   0.000000E+00   5.486827E-01   7.749091E-01   0.000000E+00   1.265817E+00   7.120067E-01   0.000000E+00   1.991929E+00   9.406149E-01   0.000000E+00   3.192601E+00   7.116986E-01   0.000000E+00   3.824170E+00   1.051881E+00   0.000000E+00   5.354717E+00   5.953631E-01   0.000000E+00   5.921658E+00   8.225206E-01   0.000000E+00   6.782204E+00   2.057013E+00   0.000000E+00   7.235129E+00   7.835411E+00   0.000000E+00   7.212007E+00   9.145696E+00   0.000000E+00   4.036622E+00   1.539276E+01   0.000000E+00   4.414546E+00   1.284269E+01   0.000000E+00   3.984633E+00   1.341342E+01   0.000000E+00   6.079453E+00   1.613434E+01   0.000000E+00   5.530487E+00   1.688905E+01   0.000000E+00   5.254576E+00   1.540290E+01   0.000000E+00   1.997211E-01   9.853346E-01   0.000000E+00   8.963006E-01   9.691204E-01   0.000000E+00   1.250709E+00   1.150595E+00   0.000000E+00   2.392455E+00   9.417660E-01   0.000000E+00   2.818382E+00   9.329967E-01   0.000000E+00   5.054322E+00   8.595202E-01   0.000000E+00   5.550779E+00   9.739701E-01   0.000000E+00   6.341751E+00   1.377365E+00   0.000000E+00   7.704611E+00   5.834432E+00   0.000000E+00   6.937135E+00   6.287885E+00   0.000000E+00   7.834744E+00   1.071347E+01   0.000000E+00   7.241261E+00   1.503413E+01   0.000000E+00   7.200181E+00   1.414636E+01   0.000000E+00   2.650624E+00   1.378079E+01   0.000000E+00   2.989486E+00   1.409345E+01   0.000000E+00   4.392852E+00   1.103521E+01   0.000000E+00   7.697519E+00   1.415796E+01   0.000000E+00   5.527362E-01   1.173760E+00   0.000000E+00   9.025490E-01   1.367449E+00   0.000000E+00   1.599625E+00   1.343003E+00   0.000000E+00   2.614692E+00   1.275170E+00   0.000000E+00   4.585012E+00   8.785432E-01   0.000000E+00   5.232346E+00   1.217676E+00   0.000000E+00   5.976860E+00   1.217386E+00   0.000000E+00   6.754715E+00   3.898243E+00   0.000000E+00   6.552345E+00   4.298149E+00   0.000000E+00   6.788048E+00   7.710785E+00   0.000000E+00   7.686017E+00   1.499717E+01   0.000000E+00   4.967793E+00   1.156796E+01   0.000000E+00   6.647240E+00   1.503791E+01   0.000000E+00   7.447069E+00   3.455404E+00   0.000000E+00   2.012423E-01   1.381654E+00   0.000000E+00   5.522764E-01   1.572814E+00   0.000000E+00   1.257966E+00   1.550297E+00   0.000000E+00   1.997674E+00   1.338802E+00   0.000000E+00   3.385131E+00   1.061377E+00   0.000000E+00   4.833035E+00   1.192449E+00   0.000000E+00   5.602278E+00   1.380799E+00   0.000000E+00   6.442332E+00   2.541837E+00   0.000000E+00   7.031923E+00   7.263245E+00   0.000000E+00   6.600523E+00   5.977952E+00   0.000000E+00   7.991953E+00   1.258501E+01   0.000000E+00   4.258932E+00   1.201513E+01   0.000000E+00   7.679596E+00   7.842813E+00   0.000000E+00   6.112862E+00   1.083833E+01   0.000000E+00   1.984937E-01   1.778318E+00   0.000000E+00   9.021720E-01   1.765963E+00   0.000000E+00   1.609253E+00   1.742120E+00   0.000000E+00   2.331167E+00   1.554739E+00   0.000000E+00   4.354765E+00   1.238021E+00   0.000000E+00   5.263441E+00   1.616097E+00   0.000000E+00   6.373737E+00   1.782797E+00   0.000000E+00   6.601240E+00   3.014715E+00   0.000000E+00   7.593797E+00   9.947157E+00   0.000000E+00   7.529531E+00   1.187647E+01   0.000000E+00   7.058887E+00   1.346877E+01   0.000000E+00   4.616378E+00   1.470045E+01   0.000000E+00   5.079333E+00   1.007002E+01   0.000000E+00   3.622119E+00   1.141478E+01   0.000000E+00   5.240047E+00   1.650735E+01   0.000000E+00   1.997086E-01   2.176339E+00   0.000000E+00   5.468703E-01   1.971985E+00   0.000000E+00   8.963562E-01   2.164298E+00   0.000000E+00   1.609394E+00   2.141793E+00   0.000000E+00   3.040404E+00   1.263885E+00   0.000000E+00   4.623868E+00   1.533469E+00   0.000000E+00   5.931962E+00   1.614481E+00   0.000000E+00   6.086934E+00   2.054608E+00   0.000000E+00   6.235353E+00   3.497637E+00   0.000000E+00   7.660585E+00   1.112671E+01   0.000000E+00   7.044662E+00   5.110566E+00   0.000000E+00   7.372849E+00   1.150487E+01   0.000000E+00   3.553531E+00   1.435790E+01   0.000000E+00   5.314817E+00   1.346906E+01   0.000000E+00   4.550907E+00   1.360738E+01   0.000000E+00   6.220329E+00   1.576434E+01   0.000000E+00   1.997985E-01   2.574677E+00   0.000000E+00   5.487975E-01   2.370840E+00   0.000000E+00   1.258137E+00   1.950128E+00   0.000000E+00   2.715743E+00   1.661968E+00   0.000000E+00   3.611387E+00   1.390018E+00   0.000000E+00   5.602488E+00   1.841306E+00   0.000000E+00   5.960515E+00   2.442865E+00   0.000000E+00   6.127798E+00   2.806723E+00   0.000000E+00   5.662209E+00   2.713614E+00   0.000000E+00   5.841587E+00   3.097781E+00   0.000000E+00   6.239769E+00   4.744081E+00   0.000000E+00   6.947581E+00   8.709623E+00   0.000000E+00   7.496919E+00   1.329777E+01   0.000000E+00   4.647060E+00   1.186314E+01   0.000000E+00   5.303717E+00   1.187076E+01   0.000000E+00   2.024204E-01   2.972785E+00   0.000000E+00   5.499256E-01   2.769568E+00   0.000000E+00   8.994437E-01   2.562903E+00   0.000000E+00   2.007575E+00   1.789453E+00   0.000000E+00   3.114721E+00   1.656000E+00   0.000000E+00   4.007991E+00   1.437373E+00   0.000000E+00   4.913752E+00   1.808942E+00   0.000000E+00   5.555940E+00   2.300542E+00   0.000000E+00   5.243510E+00   2.035428E+00   0.000000E+00   5.230368E+00   2.570866E+00   0.000000E+00   5.905098E+00   3.749648E+00   0.000000E+00   6.668175E+00   4.979976E+00   0.000000E+00   7.511395E+00   1.035993E+01   0.000000E+00   6.269988E+00   1.520422E+01   0.000000E+00   3.654381E+00   1.222898E+01   0.000000E+00   6.501068E+00   1.056337E+01   0.000000E+00   4.388340E+00   1.514036E+01   0.000000E+00   1.986740E-01   3.370739E+00   0.000000E+00   5.507333E-01   3.168794E+00   0.000000E+00   1.249110E+00   2.349950E+00   0.000000E+00   1.599237E+00   2.541299E+00   0.000000E+00   2.397186E+00   1.946563E+00   0.000000E+00   3.496350E+00   1.772408E+00   0.000000E+00   4.274989E+00   1.734819E+00   0.000000E+00   4.563918E+00   2.010972E+00   0.000000E+00   4.893595E+00   2.237423E+00   0.000000E+00   5.784608E+00   4.250322E+00   0.000000E+00   6.402540E+00   5.621113E+00   0.000000E+00   6.561115E+00   1.255212E+01   0.000000E+00   7.078692E+00   9.613517E+00   0.000000E+00   5.037188E+00   1.400558E+01   0.000000E+00   5.487703E+00   1.050419E+01   0.000000E+00   5.835817E+00   1.521829E+01   0.000000E+00   1.995279E-01   3.769344E+00   0.000000E+00   5.452361E-01   3.567896E+00   0.000000E+00   9.039974E-01   2.961814E+00   0.000000E+00   1.252638E+00   2.749467E+00   0.000000E+00   2.006227E+00   2.194582E+00   0.000000E+00   2.781739E+00   2.056362E+00   0.000000E+00   3.889249E+00   1.844510E+00   0.000000E+00   4.174767E+00   2.128482E+00   0.000000E+00   3.564831E+00   2.165343E+00   0.000000E+00   4.511115E+00   2.407276E+00   0.000000E+00   5.445854E+00   3.051570E+00   0.000000E+00   6.782221E+00   9.198091E+00   0.000000E+00   7.210919E+00   1.108209E+01   0.000000E+00   6.584782E+00   1.126929E+01   0.000000E+00   4.966413E+00   1.327120E+01   0.000000E+00   6.695030E+00   1.381282E+01   0.000000E+00   5.064710E+00   1.578939E+01  
[...]
<PointData Scalars="Diameter" Vectors="Velocity">
<DataArray type="Float32" Name="Diameter" format="ascii">
  4.000000E-01   4.000000E-01   4.000000E-01   4.000000E-01   4.000000E-01   4.000000E-01   4.000000E-01   4.000000E-01   4.000000E-01   4.000000E-01   4.000000E-01   4.000000E-01   4.000000E-01   4.000000E-01   4.000000E-01   4.000000E-01   4.000000E-01   4.000000E-01   4.000000E-01   4.000000E-01   4.000000E-01   4.000000E-01   4.000000E-01   4.000000E-01   4.000000E-01   4.000000E-01   4.000000E-01   4.000000E-01   4.000000E-01   4.000000E-01   4.000000E-01   4.000000E-01   4.000000E-01   4.000000E-01   4.000000E-01   4.000000E-01   4.000000E-01   4.000000E-01   4.000000E-01   4.000000E-01   4.000000E-01   4.000000E-01   4.000000E-01   4.000000E-01   4.000000E-01   4.000000E-01   4.000000E-01   4.000000E-01   4.000000E-01   4.000000E-01   4.000000E-01   4.000000E-01   4.000000E-01   4.000000E-01   4.000000E-01   4.000000E-01   4.000000E-01   4.000000E-01   4.000000E-01   4.000000E-01   4.000000E-01   4.000000E-01   4.000000E-01   4.000000E-01   4.000000E-01   4.000000E-01   4.000000E-01   4.000000E-01   4.000000E-01   4.000000E-01   4.000000E-01   4.000000E-01   4.000000E-01   4.000000E-01   4.000000E-01   4.000000E-01   4.000000E-01   4.000000E-01   4.000000E-01   4.000000E-01   4.000000E-01   4.000000E-01   4.000000E-01   4.000000E-01   4.000000E-01   4.000000E-01   4.000000E-01   4.000000E-01   4.000000E-01   4.000000E-01   4.000000E-01   4.000000E-01   4.000000E-01   4.000000E-01   4.000000E-01   4.000000E-01   4.000000E-01   4.000000E-01   4.000000E-01   4.000000E-01   4.000000E-01   4.000000E-01   4.000000E-01   4.000000E-01   4.000000E-01   4.000000E-01   4.000000E-01   4.000000E-01   4.000000E-01   4.000000E-01   4.000000E-01   4.000000E-01   4.000000E-01   4.000000E-01   4.000000E-01   4.000000E-01   4.000000E-01   4.000000E-01   4.000000E-01   4.000000E-01   4.000000E-01   4.000000E-01   4.000000E-01   4.000000E-01   4.000000E-01   4.000000E-01   4.000000E-01   4.000000E-01   4.000000E-01   4.000000E-01   4.000000E-01   4.000000E-01   4.000000E-01   4.000000E-01   4.000000E-01   4.000000E-01   4.000000E-01   4.000000E-01   4.000000E-01   4.000000E-01   4.000000E-01   4.000000E-01   4.000000E-01   4.000000E-01   4.000000E-01   4.000000E-01   4.000000E-01   4.000000E-01   4.000000E-01   4.000000E-01   4.000000E-01   4.000000E-01   4.000000E-01   4.000000E-01   4.000000E-01   4.000000E-01   4.000000E-01   4.000000E-01   4.000000E-01   4.000000E-01   4.000000E-01   4.000000E-01   4.000000E-01   4.000000E-01   4.000000E-01   4.000000E-01   4.000000E-01   4.000000E-01   4.000000E-01   4.000000E-01   4.000000E-01   4.000000E-01   4.000000E-01   4.000000E-01   4.000000E-01   4.000000E-01   4.000000E-01   4.000000E-01   4.000000E-01   4.000000E-01   4.000000E-01   4.000000E-01   4.000000E-01   4.000000E-01   4.000000E-01   4.000000E-01   4.000000E-01   4.000000E-01   4.000000E-01   4.000000E-01   4.000000E-01   4.000000E-01   4.000000E-01   4.000000E-01   4.000000E-01   4.000000E-01   4.000000E-01   4.000000E-01   4.000000E-01   4.000000E-01   4.000000E-01   4.000000E-01   4.000000E-01   4.000000E-01   4.000000E-01   4.000000E-01   4.000000E-01   4.000000E-01   4.000000E-01   4.000000E-01   4.000000E-01   4.000000E-01   4.000000E-01   4.000000E-01   4.000000E-01   4.000000E-01   4.000000E-01   4.000000E-01   4.000000E-01   4.000000E-01   4.000000E-01   4.000000E-01   4.000000E-01   4.000000E-01   4.000000E-01   4.000000E-01   4.000000E-01   4.000000E-01   4.000000E-01   4.000000E-01   4.000000E-01   4.000000E-01   4.000000E-01   4.000000E-01   4.000000E-01   4.000000E-01   4.000000E-01   4.000000E-01   4.000000E-01   4.000000E-01   4.000000E-01   4.000000E-01   4.000000E-01   4.000000E-01   4.000000E-01   4.000000E-01   4.000000E-01   4.000000E-01   4.000000E-01   4.000000E-01   4.000000E-01   4.000000E-01   4.000000E-01   4.000000E-01   4.000000E-01   4.000000E-01   4.000000E-01   4.000000E-01   4.000000E-01   4.000000E-01   4.000000E-01   4.000000E-01   4.000000E-01   4.000000E-01   4.000000E-01   4.000000E-01   4.000000E-01   4.000000E-01   4.000000E-01   4.000000E-01   4.000000E-01   4.000000E-01   4.000000E-01   4.000000E-01   4.000000E-01   4.000000E-01   4.000000E-01   4.000000E-01   4.000000E-01   4.000000E-01   4.000000E-01   4.000000E-01   4.000000E-01   4.000000E-01   4.000000E-01   4.000000E-01   4.000000E-01   4.000000E-01   4.000000E-01   4.000000E-01   4.000000E-01   4.000000E-01   4.000000E-01   4.000000E-01   4.000000E-01   4.000000E-01   4.000000E-01   4.000000E-01   4.000000E-01   4.000000E-01   4.000000E-01   4.000000E-01   4.000000E-01   4.000000E-01   4.000000E-01   4.000000E-01   4.000000E-01   4.000000E-01   4.000000E-01   4.000000E-01   4.000000E-01   4.000000E-01   4.000000E-01   4.000000E-01   4.000000E-01   4.000000E-01   4.000000E-01   4.000000E-01   4.000000E-01   4.000000E-01   4.000000E-01   4.000000E-01   4.000000E-01   4.000000E-01   4.000000E-01   4.000000E-01   4.000000E-01   4.000000E-01   4.000000E-01   4.000000E-01   4.000000E-01   4.000000E-01   4.000000E-01   4.000000E-01   4.000000E-01   4.000000E-01   4.000000E-01   4.000000E-01   4.000000E-01   4.000000E-01   4.000000E-01   4.000000E-01   4.000000E-01   4.000000E-01   4.000000E-01   4.000000E-01   4.000000E-01   4.000000E-01   4.000000E-01   4.000000E-01   4.000000E-01   4.000000E-01   4.000000E-01   4.000000E-01   4.000000E-01   4.000000E-01   4.000000E-01   4.000000E-01   4.000000E-01   4.000000E-01   4.000000E-01   4.000000E-01   4.000000E-01   4.000000E-01   4.000000E-01   4.000000E-01   4.000000E-01   4.000000E-01   4.000000E-01   4.000000E-01   4.000000E-01   4.000000E-01   4.000000E-01   4.000000E-01   4.000000E-01   4.000000E-01   4.000000E-01   4.000000E-01   4.000000E-01   4.000000E-01   4.000000E-01   4.000000E-01   4.000000E-01   4.000000E-01   4.000000E-01   4.000000E-01   4.000000E-01   4.000000E-01   4.000000E-01   4.000000E-01   4.000000E-01   4.000000E-01   4.000000E-01   4.000000E-01   4.000000E-01   4.000000E-01   4.000000E-01   4.000000E-01   4.000000E-01   4.000000E-01   4.000000E-01   4.000000E-01   4.000000E-01   4.000000E-01   4.000000E-01   4.000000E-01   4.000000E-01   4.000000E-01   4.000000E-01   4.000000E-01   4.000000E-01   4.000000E-01   4.000000E-01   4.000000E-01   4.000000E-01   4.000000E-01   4.000000E-01   4.000000E-01   4.000000E-01   4.000000E-01   4.000000E-01   4.000000E-01   4.000000E-01   4.000000E-01   4.000000E-01   4.000000E-01   4.000000E-01   4.000000E-01   4.000000E-01   4.000000E-01   4.000000E-01   4.000000E-01   4.000000E-01   4.000000E-01   4.000000E-01   4.000000E-01   4.000000E-01   4.000000E-01   4.000000E-01   4.000000E-01   4.000000E-01   4.000000E-01   4.000000E-01   4.000000E-01   4.000000E-01   4.000000E-01   4.000000E-01   4.000000E-01   4.000000E-01   4.000000E-01   4.000000E-01   4.000000E-01   4.000000E-01   4.000000E-01   4.000000E-01   4.000000E-01   4.000000E-01   4.000000E-01   4.000000E-01   4.000000E-01   4.000000E-01   4.000000E-01   4.000000E-01   4.000000E-01   4.000000E-01   4.000000E-01   4.000000E-01   4.000000E-01   4.000000E-01   4.000000E-01   4.000000E-01   4.000000E-01   4.000000E-01   4.000000E-01   4.000000E-01   4.000000E-01   4.000000E-01   4.000000E-01   4.000000E-01   4.000000E-01   4.000000E-01   4.000000E-01   4.000000E-01   4.000000E-01   4.000000E-01   4.000000E-01   4.000000E-01   4.000000E-01   4.000000E-01   4.000000E-01   4.000000E-01   4.000000E-01   4.000000E-01   4.000000E-01   4.000000E-01   4.000000E-01   4.000000E-01   4.000000E-01   4.000000E-01   4.000000E-01   4.000000E-01   4.000000E-01   4.000000E-01   4.000000E-01   4.000000E-01   4.000000E-01   4.000000E-01   4.000000E-01   4.000000E-01   4.000000E-01   4.000000E-01   4.000000E-01   4.000000E-01   4.000000E-01   4.000000E-01   4.000000E-01   4.000000E-01   4.000000E-01   4.000000E-01   4.000000E-01   4.000000E-01   4.000000E-01   4.000000E-01   4.000000E-01   4.000000E-01   4.000000E-01   4.000000E-01   4.000000E-01   4.000000E-01   4.000000E-01   4.000000E-01   4.000000E-01   4.000000E-01   4.000000E-01   4.000000E-01   4.000000E-01   4.000000E-01   4.000000E-01   4.000000E-01   4.000000E-01   4.000000E-01   4.000000E-01   4.000000E-01   4.000000E-01   4.000000E-01   4.000000E-01   4.000000E-01   4.000000E-01   4.000000E-01   4.000000E-01   4.000000E-01   4.000000E-01   4.000000E-01   4.000000E-01   4.000000E-01   4.000000E-01   4.000000E-01   4.000000E-01   4.000000E-01   4.000000E-01   4.000000E-01   4.000000E-01   4.000000E-01   4.000000E-01   4.000000E-01   4.000000E-01   4.000000E-01   4.000000E-01   4.000000E-01   4.000000E-01   4.000000E-01   4.000000E-01   4.000000E-01   4.000000E-01   4.000000E-01   4.000000E-01   4.000000E-01   4.000000E-01   4.000000E-01   4.000000E-01   4.000000E-01   4.000000E-01   4.000000E-01   4.000000E-01   4.000000E-01   4.000000E-01   4.000000E-01   4.000000E-01   4.000000E-01   4.000000E-01   4.000000E-01   4.000000E-01   4.000000E-01   4.000000E-01   4.000000E-01   4.000000E-01   4.000000E-01   4.000000E-01   4.000000E-01   4.000000E-01   4.000000E-01   4.000000E-01   4.000000E-01   4.000000E-01   4.000000E-01   4.000000E-01   4.000000E-01   4.000000E-01   4.000000E-01   4.000000E-01   4.000000E-01   4.000000E-01   4.000000E-01   4.000000E-01   4.000000E-01   4.000000E-01   4.000000E-01   4.000000E-01   4.000000E-01   4.000000E-01   4.000000E-01   4.000000E-01   4.000000E-01   4.000000E-01   4.000000E-01   4.000000E-01   4.000000E-01   4.000000E-01   4.000000E-01   4.000000E-01   4.000000E-01   4.000000E-01   4.000000E-01   4.000000E-01   4.000000E-01   4.000000E-01   4.000000E-01   4.000000E-01   4.000000E-01   4.000000E-01   4.000000E-01   4.000000E-01   4.000000E-01   4.000000E-01   4.000000E-01   4.000000E-01   4.000000E-01   4.000000E-01   4.000000E-01   4.000000E-01   4.000000E-01   4.000000E-01   4.000000E-01   4.000000E-01   4.000000E-01   4.000000E-01   4.000000E-01   4.000000E-01   4.000000E-01   4.000000E-01   4.000000E-01   4.000000E-01   4.000000E-01   4.000000E-01   4.000000E-01   4.000000E-01   4.000000E-01   4.000000E-01   4.000000E-01   4.000000E-01   4.000000E-01   4.000000E-01   4.000000E-01   4.000000E-01   4.000000E-01   4.000000E-01   4.000000E-01   4.000000E-01   4.000000E-01   4.000000E-01   4.000000E-01   4.000000E-01   4.000000E-01   4.000000E-01   4.000000E-01   4.000000E-01   4.000000E-01   4.000000E-01   4.000000E-01   4.000000E-01   4.000000E-01   4.000000E-01   4.000000E-01   4.000000E-01   4.000000E-01   4.000000E-01   4.000000E-01   4.000000E-01   4.000000E-01   4.000000E-01   4.000000E-01   4.000000E-01   4.000000E-01   4.000000E-01   4.000000E-01   4.000000E-01   4.000000E-01   4.000000E-01   4.000000E-01   4.000000E-01   4.000000E-01   4.000000E-01   4.000000E-01   4.000000E-01   4.000000E-01   4.000000E-01   4.000000E-01   4.000000E-01   4.000000E-01   4.000000E-01   4.000000E-01   4.000000E-01   4.000000E-01   4.000000E-01   4.000000E-01   4.000000E-01   4.000000E-01   4.000000E-01   4.000000E-01   4.000000E-01   4.000000E-01   4.000000E-01   4.000000E-01   4.000000E-01   4.000000E-01   4.000000E-01   4.000000E-01   4.000000E-01   4.000000E-01   4.000000E-01   4.000000E-01   4.000000E-01   4.000000E-01   4.000000E-01   4.000000E-01   4.000000E-01   4.000000E-01   4.000000E-01   4.000000E-01   4.000000E-01   4.000000E-01   4.000000E-01   4.000000E-01   4.000000E-01   4.000000E-01   4.000000E-01   4.000000E-01   4.000000E-01   4.000000E-01   4.000000E-01   4.000000E-01   4.000000E-01   4.000000E-01   4.000000E-01   4.000000E-01   4.000000E-01   4.000000E-01   4.000000E-01   4.000000E-01   4.000000E-01   4.000000E-01   4.000000E-01   4.000000E-01   4.000000E-01   4.000000E-01   4.000000E-01   4.000000E-01   4.000000E-01   4.000000E-01   4.000000E-01   4.000000E-01   4.000000E-01   4.000000E-01   4.000000E-01   4.000000E-01   4.000000E-01   4.000000E-01   4.000000E-01   4.000000E-01   4.000000E-01   4.000000E-01   4.000000E-01   4.000000E-01   4.000000E-01   4.000000E-01   4.000000E-01   4.000000E-01   4.000000E-01   4.000000E-01   4.000000E-01   4.000000E-01   4.000000E-01   4.000000E-01   4.000000E-01   4.000000E-01   4.000000E-01   4.000000E-01   4.000000E-01   4.000000E-01   4.000000E-01   4.000000E-01   4.000000E-01   4.000000E-01   4.000000E-01   4.000000E-01   4.000000E-01   4.000000E-01   4.000000E-01   4.000000E-01   4.000000E-01   4.000000E-01   4.000000E-01   4.000000E-01   4.000000E-01   4.000000E-01   4.000000E-01   4.000000E-01   4.000000E-01   4.000000E-01   4.000000E-01   4.000000E-01   4.000000E-01   4.000000E-01   4.000000E-01   4.000000E-01   4.000000E-01   4.000000E-01   4.000000E-01   4.000000E-01   4.000000E-01   4.000000E-01   4.000000E-01   4.000000E-01   4.000000E-01   4.000000E-01   4.000000E-01   4.000000E-01   4.000000E-01   4.000000E-01   4.000000E-01   4.000000E-01   4.000000E-01   4.000000E-01   4.000000E-01   4.000000E-01   4.000000E-01   4.000000E-01   4.000000E-01   4.000000E-01   4.000000E-01   4.000000E-01   4.000000E-01   4.000000E-01   4.000000E-01   4.000000E-01   4.000000E-01   4.000000E-01   4.000000E-01   4.000000E-01   4.000000E-01   4.000000E-01   4.000000E-01   4.000000E-01   4.000000E-01   4.000000E-01   4.000000E-01   4.000000E-01   4.000000E-01   4.000000E-01   4.000000E-01   4.000000E-01   4.000000E-01   4.000000E-01   4.000000E-01   4.000000E-01   4.000000E-01   4.000000E-01   4.000000E-01   4.000000E-01   4.000000E-01   4.000000E-01   4.000000E-01   4.000000E-01   4.000000E-01   4.000000E-01   4.000000E-01   4.000000E-01   4.000000E-01   4.000000E-01   4.000000E-01   4.000000E-01   4.000000E-01   4.000000E-01   4.000000E-01   4.000000E-01   4.000000E-01   4.000000E-01   4.000000E-01   4.000000E-01   4.000000E-01   4.000000E-01   4.000000E-01   4.000000E-01   4.000000E-01   4.000000E-01   4.000000E-01   4.000000E-01   4.000000E-01   4.000000E-01   4.000000E-01   4.000000E-01   4.000000E-01   4.000000E-01   4.000000E-01   4.000000E-01   4.000000E-01   4.000000E-01   4.000000E-01   4.000000E-01   4.000000E-01   4.000000E-01   4.000000E-01   4.000000E-01   4.000000E-01   4.000000E-01   4.000000E-01   4.000000E-01   4.000000E-01   4.000000E-01   4.000000E-01   4.000000E-01   4.000000E-01   4.000000E-01   4.000000E-01   4.000000E-01   4.000000E-01   4.000000E-01   4.000000E-01   4.000000E-01   4.000000E-01   4.000000E-01   4.000000E-01   4.000000E-01   4.000000E-01   4.000000E-01   4.000000E-01   4.000000E-01   4.000000E-01   4.000000E-01   4.000000E-01   4.000000E-01   4.000000E-01   4.000000E-01   4.000000E-01   4.000000E-01   4.000000E-01   4.000000E-01   4.000000E-01   4.000000E-01   4.000000E-01   4.000000E-01   4.000000E-01   4.000000E-01   4.000000E-01   4.000000E-01   4.000000E-01   4.000000E-01   4.000000E-01   4.000000E-01   4.000000E-01   4.000000E-01   4.000000E-01   4.000000E-01   4.000000E-01   4.000000E-01   4.000000E-01   4.000000E-01   4.000000E-01   4.000000E-01   4.000000E-01   4.000000E-01   4.000000E-01   4.000000E-01   4.000000E-01   4.000000E-01   4.000000E-01   4.000000E-01   4.000000E-01   4.000000E-01   4.000000E-01   4.000000E-01   4.000000E-01   4.000000E-01   4.000000E-01   4.000000E-01   4.000000E-01   4.000000E-01   4.000000E-01   4.000000E-01   4.000000E-01   4.000000E-01   4.000000E-01   4.000000E-01   4.000000E-01   4.000000E-01   4.000000E-01   4.000000E-01   4.000000E-01   4.000000E-01   4.000000E-01   4.000000E-01   4.000000E-01   4.000000E-01   4.000000E-01   4.000000E-01   4.000000E-01   4.000000E-01   4.000000E-01   4.000000E-01   4.000000E-01   4.000000E-01   4.000000E-01   4.000000E-01   4.000000E-01   4.000000E-01   4.000000E-01   4.000000E-01   4.000000E-01   4.000000E-01   4.000000E-01   4.000000E-01   4.000000E-01   4.000000E-01   4.000000E-01   4.000000E-01   4.000000E-01   4.000000E-01   4.000000E-01   4.000000E-01   4.000000E-01   4.000000E-01   4.000000E-01   4.000000E-01   4.000000E-01   4.000000E-01   4.000000E-01   4.000000E-01   4.000000E-01   4.000000E-01   4.000000E-01   4.000000E-01   4.000000E-01   4.000000E-01   4.000000E-01   4.000000E-01   4.000000E-01   4.000000E-01   4.000000E-01   4.000000E-01   4.000000E-01   4.000000E-01   4.000000E-01   4.000000E-01   4.000000E-01   4.000000E-01   4.000000E-01   4.000000E-01   4.000000E-01   4.000000E-01   4.000000E-01   4.000000E-01   4.000000E-01   4.000000E-01   4.000000E-01   4.000000E-01   4.000000E-01   4.000000E-01   4.000000E-01   4.000000E-01   4.000000E-01   4.000000E-01   4.000000E-01   4.000000E-01   4.000000E-01   4.000000E-01   4.000000E-01   4.000000E-01   4.000000E-01   4.000000E-01   4.000000E-01   4.000000E-01   4.000000E-01   4.000000E-01   4.000000E-01   4.000000E-01   4.000000E-01   4.000000E-01   4.000000E-01   4.000000E-01   4.000000E-01   4.000000E-01   4.000000E-01   4.000000E-01   4.000000E-01   4.000000E-01   4.000000E-01   4.000000E-01   4.000000E-01   4.000000E-01   4.000000E-01   4.000000E-01   4.000000E-01   4.000000E-01   4.000000E-01   4.000000E-01   4.000000E-01   4.000000E-01   4.000000E-01   4.000000E-01   4.000000E-01   4.000000E-01   4.000000E-01   4.000000E-01   4.000000E-01   4.000000E-01   4.000000E-01   4.000000E-01   4.000000E-01   4.000000E-01   4.000000E-01   4.000000E-01   4.000000E-01   4.000000E-01   4.000000E-01   4.000000E-01   4.000000E-01   4.000000E-01   4.000000E-01   4.000000E-01   4.000000E-01   4.000000E-01   4.000000E-01   4.000000E-01   4.000000E-01   4.000000E-01   4.000000E-01   4.000000E-01   4.000000E-01   4.000000E-01   4.000000E-01   4.000000E-01   4.000000E-01   4.000000E-01   4.000000E-01   4.000000E-01   4.000000E-01   4.000000E-01   4.000000E-01   4.000000E-01   4.000000E-01   4.000000E-01   4.000000E-01   4.000000E-01   4.000000E-01   4.000000E-01   4.000000E-01   4.000000E-01   4.000000E-01   4.000000E-01   4.000000E-01   4.000000E-01   4.000000E-01   4.000000E-01   4.000000E-01   4.000000E-01   4.000000E-01   4.000000E-01   4.000000E-01   4.000000E-01   4.000000E-01   4.000000E-01   4.000000E-01   4.000000E-01   4.000000E-01   4.000000E-01   4.000000E-01   4.000000E-01   4.000000E-01   4.000000E-01   4.000000E-01   4.000000E-01   4.000000E-01   4.000000E-01   4.000000E-01   4.000000E-01   4.000000E-01   4.000000E-01   4.000000E-01   4.000000E-01   4.000000E-01   4.000000E-01   4.000000E-01   4.000000E-01   4.000000E-01   4.000000E-01   4.000000E-01   4.000000E-01   4.000000E-01   4.000000E-01   4.000000E-01   4.000000E-01   4.000000E-01   4.000000E-01   4.000000E-01   4.000000E-01   4.000000E-01   4.000000E-01   4.000000E-01   4.000000E-01   4.000000E-01   4.000000E-01   4.000000E-01   4.000000E-01   4.000000E-01   4.000000E-01   4.000000E-01   4.000000E-01   4.000000E-01   4.000000E-01   4.000000E-01   4.000000E-01   4.000000E-01   4.000000E-01   4.000000E-01   4.000000E-01   4.000000E-01   4.000000E-01   4.000000E-01   4.000000E-01   4.000000E-01   4.000000E-01   4.000000E-01   4.000000E-01   4.000000E-01   4.000000E-01   4.000000E-01   4.000000E-01   4.000000E-01   4.000000E-01   4.000000E-01   4.000000E-01   4.000000E-01   4.000000E-01   4.000000E-01   4.000000E-01   4.000000E-01   4.000000E-01   4.000000E-01   4.000000E-01   4.000000E-01   4.000000E-01   4.000000E-01   4.000000E-01   4.000000E-01   4.000000E-01   4.000000E-01   4.000000E-01   4.000000E-01   4.000000E-01   4.000000E-01   4.000000E-01   4.000000E-01   4.000000E-01   4.000000E-01   4.000000E-01   4.000000E-01   4.000000E-01   4.000000E-01   4.000000E-01   4.000000E-01   4.000000E-01   4.000000E-01   4.000000E-01   4.000000E-01   4.000000E-01   4.000000E-01   4.000000E-01   4.000000E-01   4.000000E-01   4.000000E-01   4.000000E-01   4.000000E-01   4.000000E-01   4.000000E-01   4.000000E-01   4.000000E-01   4.000000E-01   4.000000E-01   4.000000E-01   4.000000E-01   4.000000E-01   4.000000E-01   4.000000E-01   4.000000E-01   4.000000E-01   4.000000E-01   4.000000E-01   4.000000E-01   4.000000E-01   4.000000E-01   4.000000E-01   4.000000E-01   4.000000E-01   4.000000E-01   4.000000E-01   4.000000E-01   