<?xml version="1.0"?>
<!-- Time =  3.0021029269476823E-01s -->
<VTKFile type="PolyData" version="0.1" byte_order="LittleEndian">
<PolyData>
<Piece NumberOfPoints="0000002400" NumberOfVerts="0" NumberOfLines="0" NumberOfStrips="0" NumberOfPolys="0">
<Points>
<DataArray type="Float32" Name="Position" NumberOfComponents="3" format="ascii">
  9.990228E-01   1.950102E-01   0.000000E+00   1.738129E+00   1.956448E-01   0.000000E+00   2.538622E+00   2.000986E-01   0.000000E+00   2.961115E+00   1.980397E-01   0.000000E+00   3.757968E+00   1.999414E-01   0.000000E+00   4.157415E+00   1.979769E-01   0.000000E+00   4.560602E+00   1.986428E-01   0.000000E+00   5.853728E+00   2.005013E-01   0.000000E+00   6.769206E+00   1.339164E+00   0.000000E+00   7.143708E+00   1.213656E+01   0.000000E+00   6.162362E+00   1.337132E+01   0.000000E+00   5.309244E+00   1.318538E+01   0.000000E+00   7.271686E+00   1.453993E+01   0.000000E+00   5.067323E+00   7.182297E+00   0.000000E+00   1.998490E-01   1.928336E-01   0.000000E+00   1.368468E+00   3.478985E-01   0.000000E+00   2.138633E+00   1.982082E-01   0.000000E+00   2.754812E+00   5.390353E-01   0.000000E+00   3.359709E+00   2.202089E-01   0.000000E+00   3.957192E+00   5.450709E-01   0.000000E+00   4.358624E+00   5.431427E-01   0.000000E+00   5.447668E+00   1.978431E-01   0.000000E+00   6.270168E+00   2.057615E-01   0.000000E+00   7.321745E+00   5.635047E+00   0.000000E+00   7.257881E+00   9.231399E+00   0.000000E+00   6.668107E+00   1.317673E+01   0.000000E+00   5.992731E+00   1.445556E+01   0.000000E+00   6.292629E+00   1.415375E+01   0.000000E+00   7.632973E+00   1.348850E+01   0.000000E+00   5.994044E-01   2.010863E-01   0.000000E+00   1.687962E+00   5.884517E-01   0.000000E+00   2.086977E+00   5.935131E-01   0.000000E+00   3.154000E+00   5.630710E-01   0.000000E+00   3.554953E+00   5.692738E-01   0.000000E+00   4.156299E+00   8.891556E-01   0.000000E+00   4.963548E+00   2.000027E-01   0.000000E+00   5.646925E+00   5.434452E-01   0.000000E+00   7.343383E+00   4.165528E+00   0.000000E+00   6.483680E+00   1.005243E+01   0.000000E+00   7.726907E+00   1.453618E+01   0.000000E+00   5.624584E+00   1.245303E+01   0.000000E+00   4.172982E+00   1.100594E+01   0.000000E+00   6.008616E+00   1.279966E+01   0.000000E+00   2.049945E-01   5.853916E-01   0.000000E+00   9.709449E-01   5.890086E-01   0.000000E+00   1.669234E+00   9.845994E-01   0.000000E+00   2.438670E+00   7.822511E-01   0.000000E+00   3.347327E+00   9.127089E-01   0.000000E+00   3.753650E+00   9.170421E-01   0.000000E+00   4.758231E+00   5.451179E-01   0.000000E+00   5.208708E+00   5.176749E-01   0.000000E+00   6.048337E+00   5.655748E-01   0.000000E+00   6.666698E+00   2.792938E-01   0.000000E+00   6.903346E+00   7.260777E+00   0.000000E+00   6.842528E+00   1.046300E+01   0.000000E+00   6.213806E+00   1.240910E+01   0.000000E+00   5.816874E+00   1.198048E+01   0.000000E+00   4.738315E+00   1.309178E+01   0.000000E+00   4.287548E+00   1.186359E+01   0.000000E+00   5.830896E-01   7.154191E-01   0.000000E+00   1.329555E+00   7.641340E-01   0.000000E+00   2.068979E+00   9.918197E-01   0.000000E+00   2.808422E+00   9.353783E-01   0.000000E+00   3.546369E+00   1.259216E+00   0.000000E+00   4.555962E+00   8.899823E-01   0.000000E+00   5.002680E+00   8.598341E-01   0.000000E+00   5.821876E+00   9.018487E-01   0.000000E+00   6.446303E+00   6.123601E-01   0.000000E+00   6.914676E+00   1.756592E+00   0.000000E+00   6.771156E+00   8.410531E+00   0.000000E+00   5.059448E+00   9.583167E+00   0.000000E+00   6.107224E+00   1.018046E+01   0.000000E+00   7.262552E+00   1.256355E+01   0.000000E+00   6.770640E+00   1.475058E+01   0.000000E+00   6.530168E+00   9.368573E+00   0.000000E+00   1.987649E-01   9.774337E-01   0.000000E+00   9.088916E-01   9.793397E-01   0.000000E+00   1.312400E+00   1.163090E+00   0.000000E+00   2.425894E+00   1.181186E+00   0.000000E+00   2.794575E+00   1.335153E+00   0.000000E+00   4.353660E+00   1.234794E+00   0.000000E+00   4.798670E+00   1.205062E+00   0.000000E+00   5.410781E+00   8.666692E-01   0.000000E+00   6.221528E+00   9.408060E-01   0.000000E+00   6.364704E+00   1.414877E+00   0.000000E+00   6.594860E+00   3.262587E+00   0.000000E+00   7.272827E+00   6.377380E+00   0.000000E+00   6.701687E+00   5.705278E+00   0.000000E+00   5.773673E+00   1.155043E+01   0.000000E+00   5.338005E+00   1.203506E+01   0.000000E+00   4.570392E+00   1.055311E+01   0.000000E+00   7.933107E+00   5.788833E+00   0.000000E+00   5.533144E-01   1.159030E+00   0.000000E+00   9.715042E-01   1.370419E+00   0.000000E+00   1.685970E+00   1.381222E+00   0.000000E+00   2.448503E+00   1.580420E+00   0.000000E+00   3.945796E+00   1.271146E+00   0.000000E+00   4.598407E+00   1.548401E+00   0.000000E+00   5.196486E+00   1.208309E+00   0.000000E+00   5.991596E+00   1.266511E+00   0.000000E+00   6.171038E+00   1.771581E+00   0.000000E+00   6.940560E+00   2.186034E+00   0.000000E+00   6.195897E+00   3.303813E+00   0.000000E+00   7.391120E+00   1.036282E+01   0.000000E+00   4.675159E+00   9.767427E+00   0.000000E+00   6.832694E+00   6.450982E+00   0.000000E+00   7.883492E+00   1.249054E+01   0.000000E+00   1.997478E-01   1.370328E+00   0.000000E+00   5.527554E-01   1.557105E+00   0.000000E+00   1.326274E+00   1.562343E+00   0.000000E+00   2.085549E+00   1.390030E+00   0.000000E+00   3.183695E+00   1.426930E+00   0.000000E+00   4.193901E+00   1.601191E+00   0.000000E+00   4.997525E+00   1.553757E+00   0.000000E+00   5.595042E+00   1.230488E+00   0.000000E+00   6.165307E+00   2.183948E+00   0.000000E+00   6.550029E+00   2.291889E+00   0.000000E+00   6.953280E+00   4.497771E+00   0.000000E+00   7.538857E+00   6.714722E+00   0.000000E+00   5.372407E+00   1.007642E+01   0.000000E+00   7.680259E+00   1.294275E+01   0.000000E+00   5.460192E+00   7.023551E+00   0.000000E+00   1.991897E-01   1.763558E+00   0.000000E+00   8.971729E-01   1.759121E+00   0.000000E+00   1.706163E+00   1.777594E+00   0.000000E+00   2.105762E+00   1.787604E+00   0.000000E+00   3.690758E+00   1.632391E+00   0.000000E+00   4.633650E+00   1.943741E+00   0.000000E+00   5.396707E+00   1.581808E+00   0.000000E+00   5.795959E+00   1.614822E+00   0.000000E+00   6.443468E+00   2.705929E+00   0.000000E+00   6.896664E+00   3.773506E+00   0.000000E+00   7.243515E+00   4.901509E+00   0.000000E+00   7.125195E+00   7.796908E+00   0.000000E+00   4.451379E+00   1.015853E+01   0.000000E+00   4.745475E+00   1.132629E+01   0.000000E+00   6.676879E+00   1.402526E+01   0.000000E+00   7.994385E+00   4.699111E+00   0.000000E+00   1.999088E-01   2.157397E+00   0.000000E+00   5.491031E-01   1.955156E+00   0.000000E+00   8.949593E-01   2.155384E+00   0.000000E+00   1.589046E+00   2.156643E+00   0.000000E+00   2.818447E+00   1.734219E+00   0.000000E+00   3.962585E+00   1.926263E+00   0.000000E+00   5.166768E+00   1.913786E+00   0.000000E+00   5.562972E+00   1.959356E+00   0.000000E+00   5.994912E+00   2.716107E+00   0.000000E+00   6.524230E+00   3.996286E+00   0.000000E+00   5.753182E+00   3.031917E+00   0.000000E+00   6.488422E+00   4.503011E+00   0.000000E+00   7.975668E+00   7.313032E+00   0.000000E+00   5.258703E+00   1.143161E+01   0.000000E+00   6.433813E+00   6.582791E+00   0.000000E+00   5.987576E+00   7.965748E+00   0.000000E+00   1.998962E-01   2.551887E+00   0.000000E+00   5.481414E-01   2.352902E+00   0.000000E+00   1.245487E+00   1.953548E+00   0.000000E+00   2.455623E+00   1.979850E+00   0.000000E+00   3.207721E+00   1.826104E+00   0.000000E+00   4.916502E+00   2.226019E+00   0.000000E+00   5.315242E+00   2.283818E+00   0.000000E+00   5.761072E+00   2.308588E+00   0.000000E+00   5.512106E+00   2.629543E+00   0.000000E+00   5.352623E+00   3.005586E+00   0.000000E+00   5.740829E+00   3.446084E+00   0.000000E+00   6.073677E+00   3.712368E+00   0.000000E+00   6.981594E+00   5.276082E+00   0.000000E+00   5.999034E+00   9.103444E+00   0.000000E+00   5.214892E+00   8.566313E+00   0.000000E+00   7.273279E+00   3.651596E+00   0.000000E+00   1.994851E-01   2.947054E+00   0.000000E+00   5.469549E-01   2.750304E+00   0.000000E+00   8.942832E-01   2.552803E+00   0.000000E+00   1.988132E+00   2.168757E+00   0.000000E+00   2.823625E+00   2.134003E+00   0.000000E+00   3.561567E+00   2.013551E+00   0.000000E+00   4.315261E+00   2.183316E+00   0.000000E+00   5.019169E+00   2.613858E+00   0.000000E+00   4.597484E+00   2.466521E+00   0.000000E+00   4.953822E+00   3.014591E+00   0.000000E+00   5.338149E+00   3.404931E+00   0.000000E+00   5.681321E+00   3.869739E+00   0.000000E+00   6.150110E+00   4.124587E+00   0.000000E+00   7.140715E+00   6.827295E+00   0.000000E+00   4.908043E+00   1.208026E+01   0.000000E+00   5.039841E+00   6.779630E+00   0.000000E+00   5.694703E+00   1.103636E+01   0.000000E+00   1.987121E-01   3.341967E+00   0.000000E+00   5.469576E-01   3.147855E+00   0.000000E+00   1.241533E+00   2.352962E+00   0.000000E+00   1.588676E+00   2.553776E+00   0.000000E+00   2.341047E+00   2.362670E+00   0.000000E+00   3.211864E+00   2.225830E+00   0.000000E+00   3.942651E+00   2.324861E+00   0.000000E+00   4.224342E+00   2.609886E+00   0.000000E+00   4.581771E+00   2.867433E+00   0.000000E+00   5.286319E+00   3.817823E+00   0.000000E+00   5.787798E+00   4.273551E+00   0.000000E+00   6.785419E+00   4.870403E+00   0.000000E+00   6.023129E+00   5.111201E+00   0.000000E+00   6.482640E+00   8.014774E+00   0.000000E+00   4.638904E+00   9.285646E+00   0.000000E+00   7.646765E+00   8.577980E+00   0.000000E+00   1.982480E-01   3.736442E+00   0.000000E+00   5.476503E-01   3.545557E+00   0.000000E+00   8.936116E-01   2.950742E+00   0.000000E+00   1.240691E+00   2.751573E+00   0.000000E+00   1.991153E+00   2.567596E+00   0.000000E+00   2.710623E+00   2.518291E+00   0.000000E+00   3.557109E+00   2.425791E+00   0.000000E+00   3.837198E+00   2.710453E+00   0.000000E+00   3.447144E+00   2.809828E+00   0.000000E+00   4.210650E+00   3.015311E+00   0.000000E+00   4.938652E+00   3.415126E+00   0.000000E+00   6.103273E+00   4.715674E+00  
[...]
<PointData Scalars="Diameter" Vectors="Velocity">
<DataArray type="Float32" Name="Diameter" format="ascii">
  4.000000E-01   4.000000E-01   4.000000E-01   4.000000E-01   4.000000E-01   4.000000E-01   4.000000E-01   4.000000E-01   4.000000E-01   4.000000E-01   4.000000E-01   4.000000E-01   4.000000E-01   4.000000E-01   4.000000E-01   4.000000E-01   4.000000E-01   4.000000E-01   4.000000E-01   4.000000E-01   4.000000E-01   4.000000E-01   4.000000E-01   4.000000E-01   4.000000E-01   4.000000E-01   4.000000E-01   4.000000E-01   4.000000E-01   4.000000E-01   4.000000E-01   4.000000E-01   4.000000E-01   4.000000E-01   4.000000E-01   4.000000E-01   4.000000E-01   4.000000E-01   4.000000E-01   4.000000E-01   4.000000E-01   4.000000E-01   4.000000E-01   4.000000E-01   4.000000E-01   4.000000E-01   4.000000E-01   4.000000E-01   4.000000E-01   4.000000E-01   4.000000E-01   4.000000E-01   4.000000E-01   4.000000E-01   4.000000E-01   4.000000E-01   4.000000E-01   4.000000E-01   4.000000E-01   4.000000E-01   4.000000E-01   4.000000E-01   4.000000E-01   4.000000E-01   4.000000E-01   4.000000E-01   4.000000E-01   4.000000E-01   4.000000E-01   4.000000E-01   4.000000E-01   4.000000E-01   4.000000E-01   4.000000E-01   4.000000E-01   4.000000E-01   4.000000E-01   4.000000E-01   4.000000E-01   4.000000E-01   4.000000E-01   4.000000E-01   4.000000E-01   4.000000E-01   4.000000E-01   4.000000E-01   4.000000E-01   4.000000E-01   4.000000E-01   4.000000E-01   4.000000E-01   4.000000E-01   4.000000E-01   4.000000E-01   4.000000E-01   4.000000E-01   4.000000E-01   4.000000E-01   4.000000E-01   4.000000E-01   4.000000E-01   4.000000E-01   4.000000E-01   4.000000E-01   4.000000E-01   4.000000E-01   4.000000E-01   4.000000E-01   4.000000E-01   4.000000E-01   4.000000E-01   4.000000E-01   4.000000E-01   4.000000E-01   4.000000E-01   4.000000E-01   4.000000E-01   4.000000E-01   4.000000E-01   4.000000E-01   4.000000E-01   4.000000E-01   4.000000E-01   4.000000E-01   4.000000E-01   4.000000E-01   4.000000E-01   4.000000E-01   4.000000E-01   4.000000E-01   4.000000E-01   4.000000E-01   4.000000E-01   4.000000E-01   4.000000E-01   4.000000E-01   4.000000E-01   4.000000E-01   4.000000E-01   4.000000E-01   4.000000E-01   4.000000E-01   4.000000E-01   4.000000E-01   4.000000E-01   4.000000E-01   4.000000E-01   4.000000E-01   4.000000E-01   4.000000E-01   4.000000E-01   4.000000E-01   4.000000E-01   4.000000E-01   4.000000E-01   4.000000E-01   4.000000E-01   4.000000E-01   4.000000E-01   4.000000E-01   4.000000E-01   4.000000E-01   4.000000E-01   4.000000E-01   4.000000E-01   4.000000E-01   4.000000E-01   4.000000E-01   4.000000E-01   4.000000E-01   4.000000E-01   4.000000E-01   4.000000E-01   4.000000E-01   4.000000E-01   4.000000E-01   4.000000E-01   4.000000E-01   4.000000E-01   4.000000E-01   4.000000E-01   4.000000E-01   4.000000E-01   4.000000E-01   4.000000E-01   4.000000E-01   4.000000E-01   4.000000E-01   4.000000E-01   4.000000E-01   4.000000E-01   4.000000E-01   4.000000E-01   4.000000E-01   4.000000E-01   4.000000E-01   4.000000E-01   4.000000E-01   4.000000E-01   4.000000E-01   4.000000E-01   4.000000E-01   4.000000E-01   4.000000E-01   4.000000E-01   4.000000E-01   4.000000E-01   4.000000E-01   4.000000E-01   4.000000E-01   4.000000E-01   4.000000E-01   4.000000E-01   4.000000E-01   4.000000E-01   4.000000E-01   4.000000E-01   4.000000E-01   4.000000E-01   4.000000E-01   4.000000E-01   4.000000E-01   4.000000E-01   4.000000E-01   4.000000E-01   4.000000E-01   4.000000E-01   4.000000E-01   4.000000E-01   4.000000E-01   4.000000E-01   4.000000E-01   4.000000E-01   4.000000E-01   4.000000E-01   4.000000E-01   4.000000E-01   4.000000E-01   4.000000E-01   4.000000E-01   4.000000E-01   4.000000E-01   4.000000E-01   4.000000E-01   4.000000E-01   4.000000E-01   4.000000E-01   4.000000E-01   4.000000E-01   4.000000E-01   4.000000E-01   4.000000E-01   4.000000E-01   4.000000E-01   4.000000E-01   4.000000E-01   4.000000E-01   4.000000E-01   4.000000E-01   4.000000E-01   4.000000E-01   4.000000E-01   4.000000E-01   4.000000E-01   4.000000E-01   4.000000E-01   4.000000E-01   4.000000E-01   4.000000E-01   4.000000E-01   4.000000E-01   4.000000E-01   4.000000E-01   4.000000E-01   4.000000E-01   4.000000E-01   4.000000E-01   4.000000E-01   4.000000E-01   4.000000E-01   4.000000E-01   4.000000E-01   4.000000E-01   4.000000E-01   4.000000E-01   4.000000E-01   4.000000E-01   4.000000E-01   4.000000E-01   4.000000E-01   4.000000E-01   4.000000E-01   4.000000E-01   4.000000E-01   4.000000E-01   4.000000E-01   4.000000E-01   4.000000E-01   4.000000E-01   4.000000E-01   4.000000E-01   4.000000E-01   4.000000E-01   4.000000E-01   4.000000E-01   4.000000E-01   4.000000E-01   4.000000E-01   4.000000E-01   4.000000E-01   4.000000E-01   4.000000E-01   4.000000E-01   4.000000E-01   4.000000E-01   4.000000E-01   4.000000E-01   4.000000E-01   4.000000E-01   4.000000E-01   4.000000E-01   4.000000E-01   4.000000E-01   4.000000E-01   4.000000E-01   4.000000E-01   4.000000E-01   4.000000E-01   4.000000E-01   4.000000E-01   4.000000E-01   4.000000E-01   4.000000E-01   4.000000E-01   4.000000E-01   4.000000E-01   4.000000E-01   4.000000E-01   4.000000E-01   4.000000E-01   4.000000E-01   4.000000E-01   4.000000E-01   4.000000E-01   4.000000E-01   4.000000E-01   4.000000E-01   4.000000E-01   4.000000E-01   4.000000E-01   4.000000E-01   4.000000E-01   4.000000E-01   4.000000E-01   4.000000E-01   4.000000E-01   4.000000E-01   4.000000E-01   4.000000E-01   4.000000E-01   4.000000E-01   4.000000E-01   4.000000E-01   4.000000E-01   4.000000E-01   4.000000E-01   4.000000E-01   4.000000E-01   4.000000E-01   4.000000E-01   4.000000E-01   4.000000E-01   4.000000E-01   4.000000E-01   4.000000E-01   4.000000E-01   4.000000E-01   4.000000E-01   4.000000E-01   4.000000E-01   4.000000E-01   4.000000E-01   4.000000E-01   4.000000E-01   4.000000E-01   4.000000E-01   4.000000E-01   4.000000E-01   4.000000E-01   4.000000E-01   4.000000E-01   4.000000E-01   4.000000E-01   4.000000E-01   4.000000E-01   4.000000E-01   4.000000E-01   4.000000E-01   4.000000E-01   4.000000E-01   4.000000E-01   4.000000E-01   4.000000E-01   4.000000E-01   4.000000E-01   4.000000E-01   4.000000E-01   4.000000E-01   4.000000E-01   4.000000E-01   4.000000E-01   4.000000E-01   4.000000E-01   4.000000E-01   4.000000E-01   4.000000E-01   4.000000E-01   4.000000E-01   4.000000E-01   4.000000E-01   4.000000E-01   4.000000E-01   4.000000E-01   4.000000E-01   4.000000E-01   4.000000E-01   4.000000E-01   4.000000E-01   4.000000E-01   4.000000E-01   4.000000E-01   4.000000E-01   4.000000E-01   4.000000E-01   4.000000E-01   4.000000E-01   4.000000E-01   4.000000E-01   4.000000E-01   4.000000E-01   4.000000E-01   4.000000E-01   4.000000E-01   4.000000E-01   4.000000E-01   4.000000E-01   4.000000E-01   4.000000E-01   4.000000E-01   4.000000E-01   4.000000E-01   4.000000E-01   4.000000E-01   4.000000E-01   4.000000E-01   4.000000E-01   4.000000E-01   4.000000E-01   4.000000E-01   4.000000E-01   4.000000E-01   4.000000E-01   4.000000E-01   4.000000E-01   4.000000E-01   4.000000E-01   4.000000E-01   4.000000E-01   4.000000E-01   4.000000E-01   4.000000E-01   4.000000E-01   4.000000E-01   4.000000E-01   4.000000E-01   4.000000E-01   4.000000E-01   4.000000E-01   4.000000E-01   4.000000E-01   4.000000E-01   4.000000E-01   4.000000E-01   4.000000E-01   4.000000E-01   4.000000E-01   4.000000E-01   4.000000E-01   4.000000E-01   4.000000E-01   4.000000E-01   4.000000E-01   4.000000E-01   4.000000E-01   4.000000E-01   4.000000E-01   4.000000E-01   4.000000E-01   4.000000E-01   4.000000E-01   4.000000E-01   4.000000E-01   4.000000E-01   4.000000E-01   4.000000E-01   4.000000E-01   4.000000E-01   4.000000E-01   4.000000E-01   4.000000E-01   4.000000E-01   4.000000E-01   4.000000E-01   4.000000E-01   4.000000E-01   4.000000E-01   4.000000E-01   4.000000E-01   4.000000E-01   4.000000E-01   4.000000E-01   4.000000E-01   4.000000E-01   4.000000E-01   4.000000E-01   4.000000E-01   4.000000E-01   4.000000E-01   4.000000E-01   4.000000E-01   4.000000E-01   4.000000E-01   4.000000E-01   4.000000E-01   4.000000E-01   4.000000E-01   4.000000E-01   4.000000E-01   4.000000E-01   4.000000E-01   4.000000E-01   4.000000E-01   4.000000E-01   4.000000E-01   4.000000E-01   4.000000E-01   4.000000E-01   4.000000E-01   4.000000E-01   4.000000E-01   4.000000E-01   4.000000E-01   4.000000E-01   4.000000E-01   4.000000E-01   4.000000E-01   4.000000E-01   4.000000E-01   4.000000E-01   4.000000E-01   4.000000E-01   4.000000E-01   4.000000E-01   4.000000E-01   4.000000E-01   4.000000E-01   4.000000E-01   4.000000E-01   4.000000E-01   4.000000E-01   4.000000E-01   4.000000E-01   4.000000E-01   4.000000E-01   4.000000E-01   4.000000E-01   4.000000E-01   4.000000E-01   4.000000E-01   4.000000E-01   4.000000E-01   4.000000E-01   4.000000E-01   4.000000E-01   4.000000E-01   4.000000E-01   4.000000E-01   4.000000E-01   4.000000E-01   4.000000E-01   4.000000E-01   4.000000E-01   4.000000E-01   4.000000E-01   4.000000E-01   4.000000E-01   4.000000E-01   4.000000E-01   4.000000E-01   4.000000E-01   4.000000E-01   4.000000E-01   4.000000E-01   4.000000E-01   4.000000E-01   4.000000E-01   4.000000E-01   4.000000E-01   4.000000E-01   4.000000E-01   4.000000E-01   4.000000E-01   4.000000E-01   4.000000E-01   4.000000E-01   4.000000E-01   4.000000E-01   4.000000E-01   4.000000E-01   4.000000E-01   4.000000E-01   4.000000E-01   4.000000E-01   4.000000E-01   4.000000E-01   4.000000E-01   4.000000E-01   4.000000E-01   4.000000E-01   4.000000E-01   4.000000E-01   4.000000E-01   4.000000E-01   4.000000E-01   4.000000E-01   4.000000E-01   4.000000E-01   4.000000E-01   4.000000E-01   4.000000E-01   4.000000E-01   4.000000E-01   4.000000E-01   4.000000E-01   4.000000E-01   4.000000E-01   4.000000E-01   4.000000E-01   4.000000E-01   4.000000E-01   4.000000E-01   4.000000E-01   4.000000E-01   4.000000E-01   4.000000E-01   4.000000E-01   4.000000E-01   4.000000E-01   4.000000E-01   4.000000E-01   4.000000E-01   4.000000E-01   4.000000E-01   4.000000E-01   4.000000E-01   4.000000E-01   4.000000E-01   4.000000E-01   4.000000E-01   4.000000E-01   4.000000E-01   4.000000E-01   4.000000E-01   4.000000E-01   4.000000E-01   4.000000E-01   4.000000E-01   4.000000E-01   4.000000E-01   4.000000E-01   4.000000E-01   4.000000E-01   4.000000E-01   4.000000E-01   4.000000E-01   4.000000E-01   4.000000E-01   4.000000E-01   4.000000E-01   4.000000E-01   4.000000E-01   4.000000E-01   4.000000E-01   4.000000E-01   4.000000E-01   4.000000E-01   4.000000E-01   4.000000E-01   4.000000E-01   4.000000E-01   4.000000E-01   4.000000E-01   4.000000E-01   4.000000E-01   4.000000E-01   4.000000E-01   4.000000E-01   4.000000E-01   4.000000E-01   4.000000E-01   4.000000E-01   4.000000E-01   4.000000E-01   4.000000E-01   4.000000E-01   4.000000E-01   4.000000E-01   4.000000E-01   4.000000E-01   4.000000E-01   4.000000E-01   4.000000E-01   4.000000E-01   4.000000E-01   4.000000E-01   4.000000E-01   4.000000E-01   4.000000E-01   4.000000E-01   4.000000E-01   4.000000E-01   4.000000E-01   4.000000E-01   4.000000E-01   4.000000E-01   4.000000E-01   4.000000E-01   4.000000E-01   4.000000E-01   4.000000E-01   4.000000E-01   4.000000E-01   4.000000E-01   4.000000E-01   4.000000E-01   4.000000E-01   4.000000E-01   4.000000E-01   4.000000E-01   4.000000E-01   4.000000E-01   4.000000E-01   4.000000E-01   4.000000E-01   4.000000E-01   4.000000E-01   4.000000E-01   4.000000E-01   4.000000E-01   4.000000E-01   4.000000E-01   4.000000E-01   4.000000E-01   4.000000E-01   4.000000E-01   4.000000E-01   4.000000E-01   4.000000E-01   4.000000E-01   4.000000E-01   4.000000E-01   4.000000E-01   4.000000E-01   4.000000E-01   4.000000E-01   4.000000E-01   4.000000E-01   4.000000E-01   4.000000E-01   4.000000E-01   4.000000E-01   4.000000E-01   4.000000E-01   4.000000E-01   4.000000E-01   4.000000E-01   4.000000E-01   4.000000E-01   4.000000E-01   4.000000E-01   4.000000E-01   4.000000E-01   4.000000E-01   4.000000E-01   4.000000E-01   4.000000E-01   4.000000E-01   4.000000E-01   4.000000E-01   4.000000E-01   4.000000E-01   4.000000E-01   4.000000E-01   4.000000E-01   4.000000E-01   4.000000E-01   4.000000E-01   4.000000E-01   4.000000E-01   4.000000E-01   4.000000E-01   4.000000E-01   4.000000E-01   4.000000E-01   4.000000E-01   4.000000E-01   4.000000E-01   4.000000E-01   4.000000E-01   4.000000E-01   4.000000E-01   4.000000E-01   4.000000E-01   4.000000E-01   4.000000E-01   4.000000E-01   4.000000E-01   4.000000E-01   4.000000E-01   4.000000E-01   4.000000E-01   4.000000E-01   4.000000E-01   4.000000E-01   4.000000E-01   4.000000E-01   4.000000E-01   4.000000E-01   4.000000E-01   4.000000E-01   4.000000E-01   4.000000E-01   4.000000E-01   4.000000E-01   4.000000E-01   4.000000E-01   4.000000E-01   4.000000E-01   4.000000E-01   4.000000E-01   4.000000E-01   4.000000E-01   4.000000E-01   4.000000E-01   4.000000E-01   4.000000E-01   4.000000E-01   4.000000E-01   4.000000E-01   4.000000E-01   4.000000E-01   4.000000E-01   4.000000E-01   4.000000E-01   4.000000E-01   4.000000E-01   4.000000E-01   4.000000E-01   4.000000E-01   4.000000E-01   4.000000E-01   4.000000E-01   4.000000E-01   4.000000E-01   4.000000E-01   4.000000E-01   4.000000E-01   4.000000E-01   4.000000E-01   4.000000E-01   4.000000E-01   4.000000E-01   4.000000E-01   4.000000E-01   4.000000E-01   4.000000E-01   4.000000E-01   4.000000E-01   4.000000E-01   4.000000E-01   4.000000E-01   4.000000E-01   4.000000E-01   4.000000E-01   4.000000E-01   4.000000E-01   4.000000E-01   4.000000E-01   4.000000E-01   4.000000E-01   4.000000E-01   4.000000E-01   4.000000E-01   4.000000E-01   4.000000E-01   4.000000E-01   4.000000E-01   4.000000E-01   4.000000E-01   4.000000E-01   4.000000E-01   4.000000E-01   4.000000E-01   4.000000E-01   4.000000E-01   4.000000E-01   4.000000E-01   4.000000E-01   4.000000E-01   4.000000E-01   4.000000E-01   4.000000E-01   4.000000E-01   4.000000E-01   4.000000E-01   4.000000E-01   4.000000E-01   4.000000E-01   4.000000E-01   4.000000E-01   4.000000E-01   4.000000E-01   4.000000E-01   4.000000E-01   4.000000E-01   4.000000E-01   4.000000E-01   4.000000E-01   4.000000E-01   4.000000E-01   4.000000E-01   4.000000E-01   4.000000E-01   4.000000E-01   4.000000E-01   4.000000E-01   4.000000E-01   4.000000E-01   4.000000E-01   4.000000E-01   4.000000E-01   4.000000E-01   4.000000E-01   4.000000E-01   4.000000E-01   4.000000E-01   4.000000E-01   4.000000E-01   4.000000E-01   4.000000E-01   4.000000E-01   4.000000E-01   4.000000E-01   4.000000E-01   4.000000E-01   4.000000E-01   4.000000E-01   4.000000E-01   4.000000E-01   4.000000E-01   4.000000E-01   4.000000E-01   4.000000E-01   4.000000E-01   4.000000E-01   4.000000E-01   4.000000E-01   4.000000E-01   4.000000E-01   4.000000E-01   4.000000E-01   4.000000E-01   4.000000E-01   4.000000E-01   4.000000E-01   4.000000E-01   4.000000E-01   4.000000E-01   4.000000E-01   4.000000E-01   4.000000E-01   4.000000E-01   4.000000E-01   4.000000E-01   4.000000E-01   4.000000E-01   4.000000E-01   4.000000E-01   4.000000E-01   4.000000E-01   4.000000E-01   4.000000E-01   4.000000E-01   4.000000E-01   4.000000E-01   4.000000E-01   4.000000E-01   4.000000E-01   4.000000E-01   4.000000E-01   4.000000E-01   4.000000E-01   4.000000E-01   4.000000E-01   4.000000E-01   4.000000E-01   4.000000E-01   4.000000E-01   4.000000E-01   4.000000E-01   4.000000E-01   4.000000E-01   4.000000E-01   4.000000E-01   4.000000E-01   4.000000E-01   4.000000E-01   4.000000E-01   4.000000E-01   4.000000E-01   4.000000E-01   4.000000E-01   4.000000E-01   4.000000E-01   4.000000E-01   4.000000E-01   4.000000E-01   4.000000E-01   4.000000E-01   4.000000E-01   4.000000E-01   4.000000E-01   4.000000E-01   4.000000E-01   4.000000E-01   4.000000E-01   4.000000E-01   4.000000E-01   4.000000E-01   4.000000E-01   4.000000E-01   4.000000E-01   4.000000E-01   4.000000E-01   4.000000E-01   4.000000E-01   4.000000E-01   4.000000E-01   4.000000E-01   4.000000E-01   4.000000E-01   4.000000E-01   4.000000E-01   4.000000E-01   4.000000E-01   4.000000E-01   4.000000E-01   4.000000E-01   4.000000E-01   4.000000E-01   4.000000E-01   4.000000E-01   4.000000E-01   4.000000E-01   4.000000E-01   4.000000E-01   4.000000E-01   4.000000E-01   4.000000E-01   4.000000E-01   4.000000E-01   4.000000E-01   4.000000E-01   4.000000E-01   4.000000E-01   4.000000E-01   4.000000E-01   4.000000E-01   4.000000E-01   4.000000E-01   4.000000E-01   4.000000E-01   4.000000E-01   4.000000E-01   4.000000E-01   4.000000E-01   4.000000E-01   4.000000E-01   4.000000E-01   4.000000E-01   4.000000E-01   4.000000E-01   4.000000E-01   4.000000E-01   4.000000E-01   4.000000E-01   4.000000E-01   4.000000E-01   4.000000E-01   4.000000E-01   4.000000E-01   4.000000E-01   4.000000E-01   4.000000E-01   4.000000E-01   4.000000E-01   4.000000E-01   4.000000E-01   4.000000E-01   4.000000E-01   4.000000E-01   4.000000E-01   4.000000E-01   4.000000E-01   4.000000E-01   4.000000E-01   4.000000E-01   4.000000E-01   4.000000E-01   4.000000E-01   4.000000E-01   4.000000E-01   4.000000E-01   4.000000E-01   4.000000E-01   4.000000E-01   4.000000E-01   4.000000E-01   4.000000E-01   4.000000E-01   4.000000E-01   4.000000E-01   4.000000E-01   4.000000E-01   4.000000E-01   4.000000E-01   4.000000E-01   4.000000E-01   4.000000E-01   4.000000E-01   4.000000E-01   4.000000E-01   4.000000E-01   4.000000E-01   4.000000E-01   4.000000E-01   4.000000E-01   4.000000E-01   4.000000E-01   4.000000E-01   4.000000E-01   4.000000E-01   4.000000E-01   4.000000E-01   4.000000E-01   4.000000E-01   4.000000E-01   4.000000E-01   4.000000E-01   4.000000E-01   4.000000E-01   4.000000E-01   4.000000E-01   4.000000E-01   4.000000E-01   4.000000E-01   4.000000E-01   4.000000E-01   4.000000E-01   4.000000E-01   4.000000E-01   4.000000E-01   4.000000E-01   4.000000E-01   4.000000E-01   4.000000E-01   4.000000E-01   4.000000E-01   4.000000E-01   4.000000E-01   4.000000E-01   4.000000E-01   4.000000E-01   4.000000E-01   4.000000E-01   4.000000E-01   4.000000E-01   4.000000E-01   4.000000E-01   4.000000E-01   4.000000E-01   4.000000E-01   4.000000E-01   4.000000E-01   4.000000E-01   4.000000E-01   4.000000E-01   4.000000E-01   4.000000E-01   4.000000E-01   4.000000E-01   4.000000E-01   4.000000E-01   4.000000E-01   4.000000E-01   4.000000E-01   4.000000E-01   4.000000E-01   4.000000E-01   4.000000E-01   4.000000E-01   4.000000E-01   4.000000E-01   4.000000E-01   4.000000E-01   4.000000E-01   4.000000E-01   4.000000E-01   4.000000E-01   4.000000E-01   4.000000E-01   4.000000E-01   4.000000E-01   4.000000E-01   4.000000E-01   4.000000E-01   4.000000E-01   4.000000E-01   4.000000E-01   4.000000E-01   4.000000E-01   4.000000E-01   4.000000E-01   4.000000E-01   4.000000E-01   4.000000E-01   4.000000E-01   4.000000E-01   4.000000E-01   4.000000E-01   4.000000E-01   4.000000E-01   4.000000E-01   4.000000E-01   4.000000E-01   4.000000E-01   4.000000E-01   4.000000E-01   4.000000E-01   4.000000E-01   4.000000E-01   4.000000E-01   4.000000E-01   4.000000E-01   4.000000E-01   4.000000E-01   4.000000E-01   4.000000E-01   4.000000E-01   4.000000E-01   4.000000E-01   4.000000E-01   4.000000E-01   4.000000E-01   4.000000E-01   4.000000E-01   4.000000E-01   4.000000E-01   4.000000E-01   4.000000E-01   4.000000E-01   4.000000E-01   4.000000E-01   4.000000E-01   4.000000E-01   4.000000E-01   4.000000E-01   4.000000E-01   4.000000E-01   4.000000E-01   4.000000E-01   4.000000E-01   4.000000E-01   4.000000E-01   4.000000E-01   4.000000E-01   4.000000E-01   4.000000E-01   4.000000E-01   4.000000E-01   4.000000E-01   4.000000E-01   4.000000E-01   4.000000E-01   4.000000E-01   4.000000E-01   4.000000E-01   4.000000E-01   4.000000E-01   4.000000E-01   4.000000E-01   4.000000E-01   4.000000E-01   4.000000E-01   4.000000E-01   4.000000E-01   4.000000E-01   4.000000E-01   4.000000E-01   4.000000E-01   4.000000E-01   4.000000E-01   4.000000E-01   4.000000E-01   4.000000E-01   4.000000E-01   