<?xml version="1.0"?>
<!-- Time =  1.0055029269476763E-01s -->
<VTKFile type="PolyData" version="0.1" byte_order="LittleEndian">
<PolyData>
<Piece NumberOfPoints="0000002400" NumberOfVerts="0" NumberOfLines="0" NumberOfStrips="0" NumberOfPolys="0">
<Points>
<DataArray type="Float32" Name="Position" NumberOfComponents="3" format="ascii">
  5.229186E-01   1.976911E-01   0.000000E+00   9.226505E-01   1.990762E-01   0.000000E+00   1.338191E+00   1.980990E-01   0.000000E+00   1.738453E+00   1.996755E-01   0.000000E+00   2.146328E+00   1.956605E-01   0.000000E+00   2.566105E+00   1.995769E-01   0.000000E+00   3.042490E+00   1.991029E-01   0.000000E+00   3.601305E+00   1.996914E-01   0.000000E+00   4.101184E+00   1.990172E-01   0.000000E+00   4.819603E+00   1.992919E-01   0.000000E+00   5.312290E+00   1.987735E-01   0.000000E+00   5.743800E+00   2.000652E-01   0.000000E+00   6.409031E+00   2.007532E-01   0.000000E+00   6.819200E+00   3.768736E-01   0.000000E+00   7.022001E+00   9.888126E-01   0.000000E+00   5.906168E+00   4.981539E+00   0.000000E+00   1.985721E-01   4.299160E-01   0.000000E+00   7.204461E-01   5.436716E-01   0.000000E+00   1.131841E+00   5.391330E-01   0.000000E+00   1.537081E+00   5.446188E-01   0.000000E+00   1.949479E+00   5.399065E-01   0.000000E+00   2.352339E+00   5.369641E-01   0.000000E+00   2.804835E+00   5.202719E-01   0.000000E+00   3.320719E+00   4.846488E-01   0.000000E+00   3.852558E+00   5.107883E-01   0.000000E+00   4.460205E+00   3.745422E-01   0.000000E+00   5.067564E+00   5.135238E-01   0.000000E+00   5.526120E+00   5.362322E-01   0.000000E+00   6.076211E+00   4.247623E-01   0.000000E+00   6.484383E+00   5.965486E-01   0.000000E+00   6.531104E+00   1.194408E+00   0.000000E+00   6.491875E+00   2.135178E+00   0.000000E+00   3.960537E-01   7.773603E-01   0.000000E+00   9.301943E-01   8.827756E-01   0.000000E+00   1.330445E+00   8.857228E-01   0.000000E+00   1.750230E+00   8.827732E-01   0.000000E+00   2.153931E+00   8.822408E-01   0.000000E+00   2.590262E+00   8.571481E-01   0.000000E+00   3.083317E+00   8.071746E-01   0.000000E+00   3.571823E+00   7.938504E-01   0.000000E+00   4.209405E+00   6.910803E-01   0.000000E+00   4.708590E+00   6.873074E-01   0.000000E+00   5.281087E+00   8.516061E-01   0.000000E+00   5.852584E+00   7.664990E-01   0.000000E+00   5.603544E+00   1.087129E+00   0.000000E+00   6.227029E+00   9.040023E-01   0.000000E+00   6.397680E+00   1.668204E+00   0.000000E+00   7.241452E+00   5.912567E+00   0.000000E+00   1.996182E-01   1.125197E+00   0.000000E+00   6.071744E-01   1.116682E+00   0.000000E+00   1.126739E+00   1.229207E+00   0.000000E+00   1.546726E+00   1.223230E+00   0.000000E+00   1.954840E+00   1.227153E+00   0.000000E+00   2.359302E+00   1.225542E+00   0.000000E+00   2.760844E+00   1.217208E+00   0.000000E+00   3.159987E+00   1.199558E+00   0.000000E+00   3.559268E+00   1.191692E+00   0.000000E+00   3.926600E+00   9.879103E-01   0.000000E+00   4.461823E+00   1.000984E+00   0.000000E+00   4.921891E+00   1.026075E+00   0.000000E+00   5.218357E+00   1.297898E+00   0.000000E+00   5.696741E+00   1.475848E+00   0.000000E+00   6.120480E+00   1.295596E+00   0.000000E+00   5.479253E+00   4.009351E+00   0.000000E+00   4.106599E-01   1.462641E+00   0.000000E+00   8.127034E-01   1.475529E+00   0.000000E+00   1.341934E+00   1.564064E+00   0.000000E+00   1.747277E+00   1.568381E+00   0.000000E+00   2.156665E+00   1.570792E+00   0.000000E+00   2.567702E+00   1.566702E+00   0.000000E+00   2.970541E+00   1.556395E+00   0.000000E+00   3.369763E+00   1.542945E+00   0.000000E+00   3.837978E+00   1.476234E+00   0.000000E+00   4.196988E+00   1.299857E+00   0.000000E+00   4.673968E+00   1.339282E+00   0.000000E+00   4.966305E+00   1.611670E+00   0.000000E+00   5.104336E+00   1.986639E+00   0.000000E+00   5.461694E+00   1.802071E+00   0.000000E+00   5.901605E+00   3.247180E+00   0.000000E+00   1.986699E-01   1.799978E+00   0.000000E+00   5.986921E-01   1.813775E+00   0.000000E+00   1.030134E+00   1.813117E+00   0.000000E+00   1.536127E+00   1.911011E+00   0.000000E+00   1.946413E+00   1.914422E+00   0.000000E+00   2.365551E+00   1.911240E+00   0.000000E+00   2.773611E+00   1.908724E+00   0.000000E+00   3.181963E+00   1.895386E+00   0.000000E+00   3.649611E+00   1.828288E+00   0.000000E+00   4.050556E+00   1.813820E+00   0.000000E+00   4.408916E+00   1.637866E+00   0.000000E+00   4.638032E+00   1.964879E+00   0.000000E+00   4.855511E+00   2.300161E+00   0.000000E+00   5.461729E+00   2.201094E+00   0.000000E+00   5.991402E+00   1.748813E+00   0.000000E+00   5.266246E+00   4.845247E+00   0.000000E+00   3.240545E-01   2.179661E+00   0.000000E+00   8.137024E-01   2.148427E+00   0.000000E+00   1.225976E+00   2.163648E+00   0.000000E+00   1.733629E+00   2.256422E+00   0.000000E+00   2.158077E+00   2.252936E+00   0.000000E+00   2.570900E+00   2.254083E+00   0.000000E+00   2.989143E+00   2.245203E+00   0.000000E+00   3.462353E+00   2.180021E+00   0.000000E+00   3.864026E+00   2.167094E+00   0.000000E+00   4.267371E+00   2.149658E+00   0.000000E+00   4.496146E+00   2.477352E+00   0.000000E+00   4.804801E+00   2.735204E+00   0.000000E+00   5.194948E+00   2.513515E+00   0.000000E+00   5.767168E+00   2.465879E+00   0.000000E+00   5.119937E+00   4.254779E+00   0.000000E+00   1.986040E-01   2.558255E+00   0.000000E+00   5.899143E-01   2.478618E+00   0.000000E+00   1.005848E+00   2.497912E+00   0.000000E+00   1.412032E+00   2.517868E+00   0.000000E+00   1.947464E+00   2.592702E+00   0.000000E+00   2.361507E+00   2.596773E+00   0.000000E+00   2.786937E+00   2.590256E+00   0.000000E+00   3.271562E+00   2.528632E+00   0.000000E+00   3.674201E+00   2.518927E+00   0.000000E+00   4.079254E+00   2.503774E+00   0.000000E+00   4.308714E+00   2.832277E+00   0.000000E+00   4.613752E+00   3.091760E+00   0.000000E+00   5.121972E+00   2.988323E+00   0.000000E+00   5.481714E+00   2.791919E+00   0.000000E+00   5.902116E+00   2.844554E+00   0.000000E+00   5.734475E+00   5.741856E+00   0.000000E+00   1.999337E-01   2.957602E+00   0.000000E+00   7.815124E-01   2.828944E+00   0.000000E+00   1.191262E+00   2.851984E+00   0.000000E+00   1.638231E+00   2.847673E+00   0.000000E+00   2.149004E+00   2.936451E+00   0.000000E+00   2.579421E+00   2.931768E+00   0.000000E+00   3.070361E+00   2.872461E+00   0.000000E+00   3.477230E+00   2.870648E+00   0.000000E+00   3.877642E+00   2.864377E+00   0.000000E+00   4.116546E+00   3.183830E+00   0.000000E+00   4.349104E+00   3.509453E+00   0.000000E+00   4.751891E+00   3.473140E+00   0.000000E+00   5.149420E+00   3.409866E+00   0.000000E+00   5.504209E+00   3.194169E+00   0.000000E+00   5.529751E+00   5.146012E+00   0.000000E+00   2.005937E-01   3.356291E+00   0.000000E+00   5.480216E-01   3.153383E+00   0.000000E+00   9.521989E-01   3.189973E+00   0.000000E+00   1.416953E+00   3.182019E+00   0.000000E+00   1.842723E+00   3.193703E+00   0.000000E+00   2.364945E+00   3.271437E+00   0.000000E+00   2.862553E+00   3.213454E+00   0.000000E+00   3.273000E+00   3.218911E+00   0.000000E+00   3.680413E+00   3.215553E+00   0.000000E+00   3.932133E+00   3.538450E+00   0.000000E+00   3.914842E+00   3.937615E+00   0.000000E+00   4.314846E+00   3.918007E+00   0.000000E+00   4.714396E+00   3.870283E+00   0.000000E+00   5.116665E+00   3.835304E+00   0.000000E+00   4.906560E+00   4.634697E+00   0.000000E+00   6.407118E+00   6.159851E+00   0.000000E+00   2.016067E-01   3.755402E+00   0.000000E+00   5.640032E-01   3.553472E+00   0.000000E+00   1.189674E+00   3.511384E+00   0.000000E+00   1.619935E+00   3.526233E+00   0.000000E+00   2.059916E+00   3.529264E+00   0.000000E+00   2.649081E+00   3.551522E+00   0.000000E+00   3.060905E+00   3.559938E+00   0.000000E+00   3.474012E+00   3.569187E+00   0.000000E+00   3.516606E+00   3.967940E+00   0.000000E+00   3.502130E+00   4.366680E+00   0.000000E+00   3.907567E+00   4.341000E+00   0.000000E+00   4.308027E+00   4.322512E+00   0.000000E+00   4.708622E+00   4.281139E+00   0.000000E+00   4.689796E+00   5.039478E+00   0.000000E+00   5.896746E+00   6.302009E+00   0.000000E+00   1.997759E-01   4.153996E+00   0.000000E+00   5.520387E-01   3.953640E+00   0.000000E+00   9.277080E-01   3.815145E+00   0.000000E+00   1.395557E+00   3.857307E+00   0.000000E+00   1.841746E+00   3.864113E+00   0.000000E+00   2.247908E+00   3.882936E+00   0.000000E+00   2.717329E+00   3.944556E+00   0.000000E+00   3.116968E+00   3.955767E+00   0.000000E+00   3.102596E+00   4.355198E+00   0.000000E+00   3.281893E+00   4.712534E+00   0.000000E+00   3.684658E+00   4.730235E+00   0.000000E+00   4.096075E+00   4.695745E+00   0.000000E+00   4.496917E+00   4.686500E+00   0.000000E+00   4.810506E+00   5.469770E+00   0.000000E+00   5.215116E+00   5.408685E+00   0.000000E+00   7.056949E+00   6.649237E+00   0.000000E+00   1.994275E-01   4.564732E+00   0.000000E+00   5.450677E-01   4.353947E+00   0.000000E+00   1.066500E+00   4.197836E+00   0.000000E+00   1.482901E+00   4.247761E+00   0.000000E+00   1.904765E+00   4.259906E+00   0.000000E+00   2.305117E+00   4.278959E+00   0.000000E+00   2.700599E+00   4.343502E+00   0.000000E+00   2.881916E+00   4.699852E+00   0.000000E+00   3.062706E+00   5.056345E+00   0.000000E+00   3.465367E+00   5.068288E+00   0.000000E+00   3.868971E+00   5.085153E+00   0.000000E+00   4.280315E+00   5.048878E+00   0.000000E+00   4.438818E+00   5.849153E+00   0.000000E+00   5.261828E+00   5.811449E+00   0.000000E+00   6.217341E+00   6.638673E+00   0.000000E+00   7.748534E+00   6.786628E+00   0.000000E+00   1.998307E-01   4.995029E+00   0.000000E+00   5.375232E-01   4.782187E+00   0.000000E+00   8.789051E-01   4.573587E+00   0.000000E+00   1.278479E+00   4.591180E+00   0.000000E+00   1.678433E+00   4.598595E+00   0.000000E+00   2.077292E+00   4.621980E+00   0.000000E+00   2.474289E+00   4.672679E+00   0.000000E+00   2.653258E+00   5.030139E+00   0.000000E+00   2.800574E+00   5.405215E+00   0.000000E+00   3.200630E+00   5.433458E+00   0.000000E+00   3.603034E+00   5.452203E+00  
[...]
<PointData Scalars="Diameter" Vectors="Velocity">
<DataArray type="Float32" Name="Diameter" format="ascii">
  4.000000E-01   4.000000E-01   4.000000E-01   4.000000E-01   4.000000E-01   4.000000E-01   4.000000E-01   4.000000E-01   4.000000E-01   4.000000E-01   4.000000E-01   4.000000E-01   4.000000E-01   4.000000E-01   4.000000E-01   4.000000E-01   4.000000E-01   4.000000E-01   4.000000E-01   4.000000E-01   4.000000E-01   4.000000E-01   4.000000E-01   4.000000E-01   4.000000E-01   4.000000E-01   4.000000E-01   4.000000E-01   4.000000E-01   4.000000E-01   4.000000E-01   4.000000E-01   4.000000E-01   4.000000E-01   4.000000E-01   4.000000E-01   4.000000E-01   4.000000E-01   4.000000E-01   4.000000E-01   4.000000E-01   4.000000E-01   4.000000E-01   4.000000E-01   4.000000E-01   4.000000E-01   4.000000E-01   4.000000E-01   4.000000E-01   4.000000E-01   4.000000E-01   4.000000E-01   4.000000E-01   4.000000E-01   4.000000E-01   4.000000E-01   4.000000E-01   4.000000E-01   4.000000E-01   4.000000E-01   4.000000E-01   4.000000E-01   4.000000E-01   4.000000E-01   4.000000E-01   4.000000E-01   4.000000E-01   4.000000E-01   4.000000E-01   4.000000E-01   4.000000E-01   4.000000E-01   4.000000E-01   4.000000E-01   4.000000E-01   4.000000E-01   4.000000E-01   4.000000E-01   4.000000E-01   4.000000E-01   4.000000E-01   4.000000E-01   4.000000E-01   4.000000E-01   4.000000E-01   4.000000E-01   4.000000E-01   4.000000E-01   4.000000E-01   4.000000E-01   4.000000E-01   4.000000E-01   4.000000E-01   4.000000E-01   4.000000E-01   4.000000E-01   4.000000E-01   4.000000E-01   4.000000E-01   4.000000E-01   4.000000E-01   4.000000E-01   4.000000E-01   4.000000E-01   4.000000E-01   4.000000E-01   4.000000E-01   4.000000E-01   4.000000E-01   4.000000E-01   4.000000E-01   4.000000E-01   4.000000E-01   4.000000E-01   4.000000E-01   4.000000E-01   4.000000E-01   4.000000E-01   4.000000E-01   4.000000E-01   4.000000E-01   4.000000E-01   4.000000E-01   4.000000E-01   4.000000E-01   4.000000E-01   4.000000E-01   4.000000E-01   4.000000E-01   4.000000E-01   4.000000E-01   4.000000E-01   4.000000E-01   4.000000E-01   4.000000E-01   4.000000E-01   4.000000E-01   4.000000E-01   4.000000E-01   4.000000E-01   4.000000E-01   4.000000E-01   4.000000E-01   4.000000E-01   4.000000E-01   4.000000E-01   4.000000E-01   4.000000E-01   4.000000E-01   4.000000E-01   4.000000E-01   4.000000E-01   4.000000E-01   4.000000E-01   4.000000E-01   4.000000E-01   4.000000E-01   4.000000E-01   4.000000E-01   4.000000E-01   4.000000E-01   4.000000E-01   4.000000E-01   4.000000E-01   4.000000E-01   4.000000E-01   4.000000E-01   4.000000E-01   4.000000E-01   4.000000E-01   4.000000E-01   4.000000E-01   4.000000E-01   4.000000E-01   4.000000E-01   4.000000E-01   4.000000E-01   4.000000E-01   4.000000E-01   4.000000E-01   4.000000E-01   4.000000E-01   4.000000E-01   4.000000E-01   4.000000E-01   4.000000E-01   4.000000E-01   4.000000E-01   4.000000E-01   4.000000E-01   4.000000E-01   4.000000E-01   4.000000E-01   4.000000E-01   4.000000E-01   4.000000E-01   4.000000E-01   4.000000E-01   4.000000E-01   4.000000E-01   4.000000E-01   4.000000E-01   4.000000E-01   4.000000E-01   4.000000E-01   4.000000E-01   4.000000E-01   4.000000E-01   4.000000E-01   4.000000E-01   4.000000E-01   4.000000E-01   4.000000E-01   4.000000E-01   4.000000E-01   4.000000E-01   4.000000E-01   4.000000E-01   4.000000E-01   4.000000E-01   4.000000E-01   4.000000E-01   4.000000E-01   4.000000E-01   4.000000E-01   4.000000E-01   4.000000E-01   4.000000E-01   4.000000E-01   4.000000E-01   4.000000E-01   4.000000E-01   4.000000E-01   4.000000E-01   4.000000E-01   4.000000E-01   4.000000E-01   4.000000E-01   4.000000E-01   4.000000E-01   4.000000E-01   4.000000E-01   4.000000E-01   4.000000E-01   4.000000E-01   4.000000E-01   4.000000E-01   4.000000E-01   4.000000E-01   4.000000E-01   4.000000E-01   4.000000E-01   4.000000E-01   4.000000E-01   4.000000E-01   4.000000E-01   4.000000E-01   4.000000E-01   4.000000E-01   4.000000E-01   4.000000E-01   4.000000E-01   4.000000E-01   4.000000E-01   4.000000E-01   4.000000E-01   4.000000E-01   4.000000E-01   4.000000E-01   4.000000E-01   4.000000E-01   4.000000E-01   4.000000E-01   4.000000E-01   4.000000E-01   4.000000E-01   4.000000E-01   4.000000E-01   4.000000E-01   4.000000E-01   4.000000E-01   4.000000E-01   4.000000E-01   4.000000E-01   4.000000E-01   4.000000E-01   4.000000E-01   4.000000E-01   4.000000E-01   4.000000E-01   4.000000E-01   4.000000E-01   4.000000E-01   4.000000E-01   4.000000E-01   4.000000E-01   4.000000E-01   4.000000E-01   4.000000E-01   4.000000E-01   4.000000E-01   4.000000E-01   4.000000E-01   4.000000E-01   4.000000E-01   4.000000E-01   4.000000E-01   4.000000E-01   4.000000E-01   4.000000E-01   4.000000E-01   4.000000E-01   4.000000E-01   4.000000E-01   4.000000E-01   4.000000E-01   4.000000E-01   4.000000E-01   4.000000E-01   4.000000E-01   4.000000E-01   4.000000E-01   4.000000E-01   4.000000E-01   4.000000E-01   4.000000E-01   4.000000E-01   4.000000E-01   4.000000E-01   4.000000E-01   4.000000E-01   4.000000E-01   4.000000E-01   4.000000E-01   4.000000E-01   4.000000E-01   4.000000E-01   4.000000E-01   4.000000E-01   4.000000E-01   4.000000E-01   4.000000E-01   4.000000E-01   4.000000E-01   4.000000E-01   4.000000E-01   4.000000E-01   4.000000E-01   4.000000E-01   4.000000E-01   4.000000E-01   4.000000E-01   4.000000E-01   4.000000E-01   4.000000E-01   4.000000E-01   4.000000E-01   4.000000E-01   4.000000E-01   4.000000E-01   4.000000E-01   4.000000E-01   4.000000E-01   4.000000E-01   4.000000E-01   4.000000E-01   4.000000E-01   4.000000E-01   4.000000E-01   4.000000E-01   4.000000E-01   4.000000E-01   4.000000E-01   4.000000E-01   4.000000E-01   4.000000E-01   4.000000E-01   4.000000E-01   4.000000E-01   4.000000E-01   4.000000E-01   4.000000E-01   4.000000E-01   4.000000E-01   4.000000E-01   4.000000E-01   4.000000E-01   4.000000E-01   4.000000E-01   4.000000E-01   4.000000E-01   4.000000E-01   4.000000E-01   4.000000E-01   4.000000E-01   4.000000E-01   4.000000E-01   4.000000E-01   4.000000E-01   4.000000E-01   4.000000E-01   4.000000E-01   4.000000E-01   4.000000E-01   4.000000E-01   4.000000E-01   4.000000E-01   4.000000E-01   4.000000E-01   4.000000E-01   4.000000E-01   4.000000E-01   4.000000E-01   4.000000E-01   4.000000E-01   4.000000E-01   4.000000E-01   4.000000E-01   4.000000E-01   4.000000E-01   4.000000E-01   4.000000E-01   4.000000E-01   4.000000E-01   4.000000E-01   4.000000E-01   4.000000E-01   4.000000E-01   4.000000E-01   4.000000E-01   4.000000E-01   4.000000E-01   4.000000E-01   4.000000E-01   4.000000E-01   4.000000E-01   4.000000E-01   4.000000E-01   4.000000E-01   4.000000E-01   4.000000E-01   4.000000E-01   4.000000E-01   4.000000E-01   4.000000E-01   4.000000E-01   4.000000E-01   4.000000E-01   4.000000E-01   4.000000E-01   4.000000E-01   4.000000E-01   4.000000E-01   4.000000E-01   4.000000E-01   4.000000E-01   4.000000E-01   4.000000E-01   4.000000E-01   4.000000E-01   4.000000E-01   4.000000E-01   4.000000E-01   4.000000E-01   4.000000E-01   4.000000E-01   4.000000E-01   4.000000E-01   4.000000E-01   4.000000E-01   4.000000E-01   4.000000E-01   4.000000E-01   4.000000E-01   4.000000E-01   4.000000E-01   4.000000E-01   4.000000E-01   4.000000E-01   4.000000E-01   4.000000E-01   4.000000E-01   4.000000E-01   4.000000E-01   4.000000E-01   4.000000E-01   4.000000E-01   4.000000E-01   4.000000E-01   4.000000E-01   4.000000E-01   4.000000E-01   4.000000E-01   4.000000E-01   4.000000E-01   4.000000E-01   4.000000E-01   4.000000E-01   4.000000E-01   4.000000E-01   4.000000E-01   4.000000E-01   4.000000E-01   4.000000E-01   4.000000E-01   4.000000E-01   4.000000E-01   4.000000E-01   4.000000E-01   4.000000E-01   4.000000E-01   4.000000E-01   4.000000E-01   4.000000E-01   4.000000E-01   4.000000E-01   4.000000E-01   4.000000E-01   4.000000E-01   4.000000E-01   4.000000E-01   4.000000E-01   4.000000E-01   4.000000E-01   4.000000E-01   4.000000E-01   4.000000E-01   4.000000E-01   4.000000E-01   4.000000E-01   4.000000E-01   4.000000E-01   4.000000E-01   4.000000E-01   4.000000E-01   4.000000E-01   4.000000E-01   4.000000E-01   4.000000E-01   4.000000E-01   4.000000E-01   4.000000E-01   4.000000E-01   4.000000E-01   4.000000E-01   4.000000E-01   4.000000E-01   4.000000E-01   4.000000E-01   4.000000E-01   4.000000E-01   4.000000E-01   4.000000E-01   4.000000E-01   4.000000E-01   4.000000E-01   4.000000E-01   4.000000E-01   4.000000E-01   4.000000E-01   4.000000E-01   4.000000E-01   4.000000E-01   4.000000E-01   4.000000E-01   4.000000E-01   4.000000E-01   4.000000E-01   4.000000E-01   4.000000E-01   4.000000E-01   4.000000E-01   4.000000E-01   4.000000E-01   4.000000E-01   4.000000E-01   4.000000E-01   4.000000E-01   4.000000E-01   4.000000E-01   4.000000E-01   4.000000E-01   4.000000E-01   4.000000E-01   4.000000E-01   4.000000E-01   4.000000E-01   4.000000E-01   4.000000E-01   4.000000E-01   4.000000E-01   4.000000E-01   4.000000E-01   4.000000E-01   4.000000E-01   4.000000E-01   4.000000E-01   4.000000E-01   4.000000E-01   4.000000E-01   4.000000E-01   4.000000E-01   4.000000E-01   4.000000E-01   4.000000E-01   4.000000E-01   4.000000E-01   4.000000E-01   4.000000E-01   4.000000E-01   4.000000E-01   4.000000E-01   4.000000E-01   4.000000E-01   4.000000E-01   4.000000E-01   4.000000E-01   4.000000E-01   4.000000E-01   4.000000E-01   4.000000E-01   4.000000E-01   4.000000E-01   4.000000E-01   4.000000E-01   4.000000E-01   4.000000E-01   4.000000E-01   4.000000E-01   4.000000E-01   4.000000E-01   4.000000E-01   4.000000E-01   4.000000E-01   4.000000E-01   4.000000E-01   4.000000E-01   4.000000E-01   4.000000E-01   4.000000E-01   4.000000E-01   4.000000E-01   4.000000E-01   4.000000E-01   4.000000E-01   4.000000E-01   4.000000E-01   4.000000E-01   4.000000E-01   4.000000E-01   4.000000E-01   4.000000E-01   4.000000E-01   4.000000E-01   4.000000E-01   4.000000E-01   4.000000E-01   4.000000E-01   4.000000E-01   4.000000E-01   4.000000E-01   4.000000E-01   4.000000E-01   4.000000E-01   4.000000E-01   4.000000E-01   4.000000E-01   4.000000E-01   4.000000E-01   4.000000E-01   4.000000E-01   4.000000E-01   4.000000E-01   4.000000E-01   4.000000E-01   4.000000E-01   4.000000E-01   4.000000E-01   4.000000E-01   4.000000E-01   4.000000E-01   4.000000E-01   4.000000E-01   4.000000E-01   4.000000E-01   4.000000E-01   4.000000E-01   4.000000E-01   4.000000E-01   4.000000E-01   4.000000E-01   4.000000E-01   4.000000E-01   4.000000E-01   4.000000E-01   4.000000E-01   4.000000E-01   4.000000E-01   4.000000E-01   4.000000E-01   4.000000E-01   4.000000E-01   4.000000E-01   4.000000E-01   4.000000E-01   4.000000E-01   4.000000E-01   4.000000E-01   4.000000E-01   4.000000E-01   4.000000E-01   4.000000E-01   4.000000E-01   4.000000E-01   4.000000E-01   4.000000E-01   4.000000E-01   4.000000E-01   4.000000E-01   4.000000E-01   4.000000E-01   4.000000E-01   4.000000E-01   4.000000E-01   4.000000E-01   4.000000E-01   4.000000E-01   4.000000E-01   4.000000E-01   4.000000E-01   4.000000E-01   4.000000E-01   4.000000E-01   4.000000E-01   4.000000E-01   4.000000E-01   4.000000E-01   4.000000E-01   4.000000E-01   4.000000E-01   4.000000E-01   4.000000E-01   4.000000E-01   4.000000E-01   4.000000E-01   4.000000E-01   4.000000E-01   4.000000E-01   4.000000E-01   4.000000E-01   4.000000E-01   4.000000E-01   4.000000E-01   4.000000E-01   4.000000E-01   4.000000E-01   4.000000E-01   4.000000E-01   4.000000E-01   4.000000E-01   4.000000E-01   4.000000E-01   4.000000E-01   4.000000E-01   4.000000E-01   4.000000E-01   4.000000E-01   4.000000E-01   4.000000E-01   4.000000E-01   4.000000E-01   4.000000E-01   4.000000E-01   4.000000E-01   4.000000E-01   4.000000E-01   4.000000E-01   4.000000E-01   4.000000E-01   4.000000E-01   4.000000E-01   4.000000E-01   4.000000E-01   4.000000E-01   4.000000E-01   4.000000E-01   4.000000E-01   4.000000E-01   4.000000E-01   4.000000E-01   4.000000E-01   4.000000E-01   4.000000E-01   4.000000E-01   4.000000E-01   4.000000E-01   4.000000E-01   4.000000E-01   4.000000E-01   4.000000E-01   4.000000E-01   4.000000E-01   4.000000E-01   4.000000E-01   4.000000E-01   4.000000E-01   4.000000E-01   4.000000E-01   4.000000E-01   4.000000E-01   4.000000E-01   4.000000E-01   4.000000E-01   4.000000E-01   4.000000E-01   4.000000E-01   4.000000E-01   4.000000E-01   4.000000E-01   4.000000E-01   4.000000E-01   4.000000E-01   4.000000E-01   4.000000E-01   4.000000E-01   4.000000E-01   4.000000E-01   4.000000E-01   4.000000E-01   4.000000E-01   4.000000E-01   4.000000E-01   4.000000E-01   4.000000E-01   4.000000E-01   4.000000E-01   4.000000E-01   4.000000E-01   4.000000E-01   4.000000E-01   4.000000E-01   4.000000E-01   4.000000E-01   4.000000E-01   4.000000E-01   4.000000E-01   4.000000E-01   4.000000E-01   4.000000E-01   4.000000E-01   4.000000E-01   4.000000E-01   4.000000E-01   4.000000E-01   4.000000E-01   4.000000E-01   4.000000E-01   4.000000E-01   4.000000E-01   4.000000E-01   4.000000E-01   4.000000E-01   4.000000E-01   4.000000E-01   4.000000E-01   4.000000E-01   4.000000E-01   4.000000E-01   4.000000E-01   4.000000E-01   4.000000E-01   4.000000E-01   4.000000E-01   4.000000E-01   4.000000E-01   4.000000E-01   4.000000E-01   4.000000E-01   4.000000E-01   4.000000E-01   4.000000E-01   4.000000E-01   4.000000E-01   4.000000E-01   4.000000E-01   4.000000E-01   4.000000E-01   4.000000E-01   4.000000E-01   4.000000E-01   4.000000E-01   4.000000E-01   4.000000E-01   4.000000E-01   4.000000E-01   4.000000E-01   4.000000E-01   4.000000E-01   4.000000E-01   4.000000E-01   4.000000E-01   4.000000E-01   4.000000E-01   4.000000E-01   4.000000E-01   4.000000E-01   4.000000E-01   4.000000E-01   4.000000E-01   4.000000E-01   4.000000E-01   4.000000E-01   4.000000E-01   4.000000E-01   4.000000E-01   4.000000E-01   4.000000E-01   4.000000E-01   4.000000E-01   4.000000E-01   4.000000E-01   4.000000E-01   4.000000E-01   4.000000E-01   4.000000E-01   4.000000E-01   4.000000E-01   4.000000E-01   4.000000E-01   4.000000E-01   4.000000E-01   4.000000E-01   4.000000E-01   4.000000E-01   4.000000E-01   4.000000E-01   4.000000E-01   4.000000E-01   4.000000E-01   4.000000E-01   4.000000E-01   4.000000E-01   4.000000E-01   4.000000E-01   4.000000E-01   4.000000E-01   4.000000E-01   4.000000E-01   4.000000E-01   4.000000E-01   4.000000E-01   4.000000E-01   4.000000E-01   4.000000E-01   4.000000E-01   4.000000E-01   4.000000E-01   4.000000E-01   4.000000E-01   4.000000E-01   4.000000E-01   4.000000E-01   4.000000E-01   4.000000E-01   4.000000E-01   4.000000E-01   4.000000E-01   4.000000E-01   4.000000E-01   4.000000E-01   4.000000E-01   4.000000E-01   4.000000E-01   4.000000E-01   4.000000E-01   4.000000E-01   4.000000E-01   4.000000E-01   4.000000E-01   4.000000E-01   4.000000E-01   4.000000E-01   4.000000E-01   4.000000E-01   4.000000E-01   4.000000E-01   4.000000E-01   4.000000E-01   4.000000E-01   4.000000E-01   4.000000E-01   4.000000E-01   4.000000E-01   4.000000E-01   4.000000E-01   4.000000E-01   4.000000E-01   4.000000E-01   4.000000E-01   4.000000E-01   4.000000E-01   4.000000E-01   4.000000E-01   4.000000E-01   4.000000E-01   4.000000E-01   4.000000E-01   4.000000E-01   4.000000E-01   4.000000E-01   4.000000E-01   4.000000E-01   4.000000E-01   4.000000E-01   4.000000E-01   4.000000E-01   4.000000E-01   4.000000E-01   4.000000E-01   4.000000E-01   4.000000E-01   4.000000E-01   4.000000E-01   4.000000E-01   4.000000E-01   4.000000E-01   4.000000E-01   4.000000E-01   4.000000E-01   4.000000E-01   4.000000E-01   4.000000E-01   4.000000E-01   4.000000E-01   4.000000E-01   4.000000E-01   4.000000E-01   4.000000E-01   4.000000E-01   4.000000E-01   4.000000E-01   4.000000E-01   4.000000E-01   4.000000E-01   4.000000E-01   4.000000E-01   4.000000E-01   4.000000E-01   4.000000E-01   4.000000E-01   4.000000E-01   4.000000E-01   4.000000E-01   4.000000E-01   4.000000E-01   4.000000E-01   4.000000E-01   4.000000E-01   4.000000E-01   4.000000E-01   4.000000E-01   4.000000E-01   4.000000E-01   4.000000E-01   4.000000E-01   4.000000E-01   4.000000E-01   4.000000E-01   4.000000E-01   4.000000E-01   4.000000E-01   4.000000E-01   4.000000E-01   4.000000E-01   4.000000E-01   4.000000E-01   4.000000E-01   4.000000E-01   4.000000E-01   4.000000E-01   4.000000E-01   4.000000E-01   4.000000E-01   4.000000E-01   4.000000E-01   4.000000E-01   4.000000E-01   4.000000E-01   4.000000E-01   4.000000E-01   4.000000E-01   4.000000E-01   4.000000E-01   4.000000E-01   4.000000E-01   4.000000E-01   4.000000E-01   4.000000E-01   4.000000E-01   4.000000E-01   4.000000E-01   4.000000E-01   4.000000E-01   4.000000E-01   4.000000E-01   4.000000E-01   4.000000E-01   4.000000E-01   4.000000E-01   4.000000E-01   4.000000E-01   4.000000E-01   4.000000E-01   4.000000E-01   4.000000E-01   4.000000E-01   4.000000E-01   4.000000E-01   4.000000E-01   4.000000E-01   4.000000E-01   4.000000E-01   4.000000E-01   4.000000E-01   4.000000E-01   4.000000E-01   4.000000E-01   4.000000E-01   4.000000E-01   4.000000E-01   4.000000E-01   4.000000E-01   4.000000E-01   4.000000E-01   4.000000E-01   4.000000E-01   4.000000E-01   4.000000E-01   4.000000E-01   4.000000E-01   4.000000E-01   4.000000E-01   4.000000E-01   4.000000E-01   4.000000E-01   4.000000E-01   4.000000E-01   4.000000E-01   4.000000E-01   4.000000E-01   4.000000E-01   4.000000E-01   4.000000E-01   4.000000E-01   4.000000E-01   4.000000E-01   4.000000E-01   4.000000E-01   4.000000E-01   4.000000E-01   4.000000E-01   4.000000E-01   4.000000E-01   4.000000E-01   4.000000E-01   4.000000E-01   4.000000E-01   4.000000E-01   4.000000E-01   4.000000E-01   4.000000E-01   4.000000E-01   4.000000E-01   4.000000E-01   4.000000E-01   4.000000E-01   4.000000E-01   4.000000E-01   4.000000E-01   4.000000E-01   4.000000E-01   4.000000E-01   4.000000E-01   4.000000E-01   4.000000E-01   4.000000E-01   4.000000E-01   4.000000E-01   4.000000E-01   4.000000E-01   4.000000E-01   4.000000E-01   4.000000E-01   4.000000E-01   4.000000E-01   4.000000E-01   4.000000E-01   4.000000E-01   4.000000E-01   4.000000E-01   4.000000E-01   4.000000E-01   4.000000E-01   4.000000E-01   4.000000E-01   4.000000E-01   4.000000E-01   4.000000E-01   4.000000E-01   4.000000E-01   4.000000E-01   4.000000E-01   4.000000E-01   4.000000E-01   4.000000E-01   4.000000E-01   4.000000E-01   4.000000E-01   4.000000E-01   4.000000E-01   4.000000E-01   4.000000E-01   4.000000E-01   4.000000E-01   4.000000E-01   4.000000E-01   4.000000E-01   4.000000E-01   4.000000E-01   4.000000E-01   4.000000E-01   4.000000E-01   4.000000E-01   4.000000E-01   4.000000E-01   4.000000E-01   4.000000E-01   4.000000E-01   4.000000E-01   4.000000E-01   4.000000E-01   4.000000E-01   4.000000E-01   4.000000E-01   4.000000E-01   4.000000E-01   4.000000E-01   4.000000E-01   4.000000E-01   4.000000E-01   4.000000E-01   4.000000E-01   4.000000E-01   4.000000E-01   4.000000E-01   4.000000E-01   4.000000E-01   4.000000E-01   4.000000E-01   4.000000E-01   4.000000E-01   4.000000E-01   4.000000E-01   4.000000E-01   4.000000E-01   4.000000E-01   4.000000E-01   4.000000E-01   4.000000E-01   4.000000E-01   4.000000E-01   4.000000E-01   4.000000E-01   4.000000E-01   4.000000E-01   4.000000E-01   4.000000E-01   4.000000E-01   4.000000E-01   4.000000E-01   4.000000E-01   4.000000E-01   4.000000E-01   4.000000E-01   4.000000E-01   4.000000E-01   4.000000E-01   4.000000E-01   4.000000E-01   4.000000E-01   4.000000E-01   4.000000E-01   4.000000E-01   4.000000E-01   4.000000E-01   4.000000E-01   4.000000E-01   4.000000E-01   4.000000E-01   4.000000E-01   4.000000E-01   4.000000E-01   4.000000E-01   4.000000E-01   4.000000E-01   4.000000E-01   4.000000E-01   4.000000E-01   4.000000E-01   4.000000E-01   4.000000E-01   4.000000E-01   4.000000E-01   4.000000E-01   4.000000E-01   4.000000E-01   4.000000E-01   4.000000E-01   4.000000E-01   4.000000E-01   4.000000E-01   4.000000E-01   4.000000E-01   4.000000E-01   4.000000E-01   4.000000E-01   