<?xml version="1.0"?>
<!-- Time =  2.0061029269476791E-01s -->
<VTKFile type="PolyData" version="0.1" byte_order="LittleEndian">
<PolyData>
<Piece NumberOfPoints="0000002400" NumberOfVerts="0" NumberOfLines="0" NumberOfStrips="0" NumberOfPolys="0">
<Points>
<DataArray type="Float32" Name="Position" NumberOfComponents="3" format="ascii">
  5.972506E-01   1.983787E-01   0.000000E+00   1.183647E+00   1.971182E-01   0.000000E+00   1.896997E+00   1.993347E-01   0.000000E+00   2.296780E+00   1.998663E-01   0.000000E+00   2.696539E+00   1.996022E-01   0.000000E+00   3.096222E+00   1.993184E-01   0.000000E+00   3.495819E+00   1.982926E-01   0.000000E+00   4.526731E+00   1.991845E-01   0.000000E+00   5.602846E+00   1.986462E-01   0.000000E+00   6.478326E+00   2.170218E-01   0.000000E+00   7.259671E+00   2.574928E+00   0.000000E+00   7.109570E+00   7.029422E+00   0.000000E+00   6.991400E+00   7.497311E+00   0.000000E+00   7.804662E+00   1.092723E+01   0.000000E+00   5.768133E+00   7.348032E+00   0.000000E+00   7.582716E+00   8.367262E+00   0.000000E+00   1.983578E-01   1.988257E-01   0.000000E+00   8.916535E-01   4.665161E-01   0.000000E+00   1.539185E+00   3.764969E-01   0.000000E+00   2.097470E+00   5.463980E-01   0.000000E+00   2.497180E+00   5.462797E-01   0.000000E+00   2.896889E+00   5.455447E-01   0.000000E+00   3.297157E+00   5.445323E-01   0.000000E+00   4.046470E+00   1.995690E-01   0.000000E+00   4.926100E+00   1.985622E-01   0.000000E+00   6.023818E+00   2.007590E-01   0.000000E+00   6.894152E+00   3.444295E-01   0.000000E+00   7.304816E+00   4.889732E+00   0.000000E+00   7.596743E+00   7.375760E+00   0.000000E+00   7.462324E+00   1.010344E+01   0.000000E+00   7.058994E+00   1.008353E+01   0.000000E+00   7.997989E+00   4.827343E+00   0.000000E+00   3.970195E-01   5.445052E-01   0.000000E+00   1.246796E+00   6.492426E-01   0.000000E+00   1.738578E+00   7.217737E-01   0.000000E+00   2.298772E+00   8.936639E-01   0.000000E+00   2.698277E+00   8.924742E-01   0.000000E+00   3.097868E+00   8.905807E-01   0.000000E+00   3.769880E+00   4.882970E-01   0.000000E+00   4.289952E+00   5.200851E-01   0.000000E+00   5.809846E+00   5.402918E-01   0.000000E+00   6.648969E+00   6.708946E-01   0.000000E+00   6.918138E+00   3.134194E+00   0.000000E+00   7.454882E+00   6.788607E+00   0.000000E+00   7.870170E+00   5.527023E+00   0.000000E+00   6.470680E+00   6.824144E+00   0.000000E+00   6.037147E+00   8.871147E+00   0.000000E+00   5.618556E+00   8.888886E+00   0.000000E+00   1.992888E-01   8.914722E-01   0.000000E+00   6.941485E-01   8.108913E-01   0.000000E+00   1.446786E+00   9.950769E-01   0.000000E+00   1.938604E+00   1.066903E+00   0.000000E+00   2.500715E+00   1.239985E+00   0.000000E+00   2.901109E+00   1.237872E+00   0.000000E+00   3.568054E+00   8.377892E-01   0.000000E+00   4.011696E+00   8.057497E-01   0.000000E+00   4.725975E+00   5.449117E-01   0.000000E+00   5.264190E+00   4.101737E-01   0.000000E+00   6.246243E+00   5.444149E-01   0.000000E+00   6.781306E+00   1.277213E+00   0.000000E+00   7.171940E+00   4.020961E+00   0.000000E+00   6.974161E+00   5.491021E+00   0.000000E+00   6.609625E+00   9.598372E+00   0.000000E+00   6.269596E+00   7.285795E+00   0.000000E+00   4.984459E-01   1.156297E+00   0.000000E+00   1.047078E+00   9.972985E-01   0.000000E+00   1.647269E+00   1.340494E+00   0.000000E+00   2.139813E+00   1.411556E+00   0.000000E+00   2.710674E+00   1.588508E+00   0.000000E+00   3.368311E+00   1.184396E+00   0.000000E+00   3.814319E+00   1.152322E+00   0.000000E+00   4.347598E+00   1.021829E+00   0.000000E+00   5.065289E+00   7.570097E-01   0.000000E+00   5.466916E+00   7.550098E-01   0.000000E+00   6.434626E+00   1.011286E+00   0.000000E+00   6.687865E+00   1.681092E+00   0.000000E+00   6.619065E+00   2.107918E+00   0.000000E+00   6.737207E+00   3.509148E+00   0.000000E+00   7.254057E+00   9.728889E+00   0.000000E+00   1.971184E-01   1.414142E+00   0.000000E+00   8.486030E-01   1.347164E+00   0.000000E+00   1.247996E+00   1.342493E+00   0.000000E+00   1.848528E+00   1.684922E+00   0.000000E+00   2.346887E+00   1.753062E+00   0.000000E+00   3.171241E+00   1.532521E+00   0.000000E+00   3.615310E+00   1.498435E+00   0.000000E+00   4.149403E+00   1.369939E+00   0.000000E+00   4.746707E+00   9.988668E-01   0.000000E+00   5.266507E+00   1.101929E+00   0.000000E+00   6.021410E+00   8.799219E-01   0.000000E+00   6.124383E+00   1.265435E+00   0.000000E+00   6.276642E+00   1.636160E+00   0.000000E+00   6.500483E+00   3.816289E+00   0.000000E+00   6.449599E+00   5.071964E+00   0.000000E+00   5.941729E+00   5.554314E+00   0.000000E+00   5.462535E-01   1.608789E+00   0.000000E+00   1.049583E+00   1.692038E+00   0.000000E+00   1.449062E+00   1.687898E+00   0.000000E+00   2.055165E+00   2.025849E+00   0.000000E+00   2.979868E+00   1.883945E+00   0.000000E+00   3.419553E+00   1.846211E+00   0.000000E+00   3.949981E+00   1.716642E+00   0.000000E+00   4.549039E+00   1.366725E+00   0.000000E+00   4.948428E+00   1.344475E+00   0.000000E+00   5.684255E+00   1.101956E+00   0.000000E+00   5.849430E+00   1.554403E+00   0.000000E+00   6.152421E+00   2.017821E+00   0.000000E+00   6.520010E+00   2.508297E+00   0.000000E+00   7.202050E+00   5.863898E+00   0.000000E+00   5.858386E+00   3.501649E+00   0.000000E+00   2.004969E-01   1.811756E+00   0.000000E+00   6.422591E-01   1.996903E+00   0.000000E+00   1.252913E+00   2.036006E+00   0.000000E+00   1.652636E+00   2.033569E+00   0.000000E+00   2.615343E+00   2.049139E+00   0.000000E+00   3.228115E+00   2.195562E+00   0.000000E+00   3.752792E+00   2.067412E+00   0.000000E+00   4.350669E+00   1.715512E+00   0.000000E+00   4.749110E+00   1.712403E+00   0.000000E+00   5.463943E+00   1.448161E+00   0.000000E+00   5.741076E+00   1.939847E+00   0.000000E+00   5.993450E+00   2.386655E+00   0.000000E+00   6.396096E+00   2.892020E+00   0.000000E+00   6.901381E+00   4.302998E+00   0.000000E+00   7.657917E+00   9.523985E+00   0.000000E+00   5.487927E+00   6.970953E+00   0.000000E+00   1.993054E-01   2.208729E+00   0.000000E+00   9.317809E-01   2.272979E+00   0.000000E+00   1.391320E+00   2.411135E+00   0.000000E+00   1.861448E+00   2.374720E+00   0.000000E+00   2.864834E+00   2.361223E+00   0.000000E+00   3.555750E+00   2.424432E+00   0.000000E+00   4.152645E+00   2.062831E+00   0.000000E+00   4.554359E+00   2.061361E+00   0.000000E+00   5.148172E+00   1.691056E+00   0.000000E+00   5.350798E+00   2.036437E+00   0.000000E+00   5.590158E+00   2.355976E+00   0.000000E+00   6.033265E+00   3.142110E+00   0.000000E+00   6.132501E+00   4.119795E+00   0.000000E+00   6.434064E+00   6.245919E+00   0.000000E+00   6.788355E+00   8.126894E+00   0.000000E+00   1.988888E-01   2.606304E+00   0.000000E+00   5.520667E-01   2.397248E+00   0.000000E+00   9.242788E-01   2.672312E+00   0.000000E+00   1.658810E+00   2.718623E+00   0.000000E+00   2.322524E+00   2.322067E+00   0.000000E+00   3.192415E+00   2.591228E+00   0.000000E+00   3.955635E+00   2.411817E+00   0.000000E+00   4.355765E+00   2.410954E+00   0.000000E+00   4.952508E+00   2.056586E+00   0.000000E+00   5.166557E+00   2.394838E+00   0.000000E+00   4.971005E+00   2.744513E+00   0.000000E+00   5.410059E+00   2.715872E+00   0.000000E+00   5.870412E+00   2.766055E+00   0.000000E+00   6.413868E+00   4.544085E+00   0.000000E+00   5.763740E+00   3.894381E+00   0.000000E+00   5.406934E+00   5.629042E+00   0.000000E+00   2.001592E-01   3.004097E+00   0.000000E+00   5.467970E-01   2.802452E+00   0.000000E+00   1.281743E+00   2.849831E+00   0.000000E+00   2.128874E+00   2.671948E+00   0.000000E+00   2.572618E+00   2.633061E+00   0.000000E+00   3.756079E+00   2.770446E+00   0.000000E+00   4.155777E+00   2.758868E+00   0.000000E+00   4.758657E+00   2.406148E+00   0.000000E+00   4.562558E+00   2.755765E+00   0.000000E+00   4.360514E+00   3.103037E+00   0.000000E+00   4.773902E+00   3.095172E+00   0.000000E+00   5.204518E+00   3.069593E+00   0.000000E+00   5.607148E+00   3.067641E+00   0.000000E+00   5.713689E+00   4.392139E+00   0.000000E+00   5.562182E+00   5.242373E+00   0.000000E+00   7.708758E+00   7.898490E+00   0.000000E+00   2.000525E-01   3.401850E+00   0.000000E+00   5.468310E-01   3.201831E+00   0.000000E+00   9.250495E-01   3.072392E+00   0.000000E+00   1.925385E+00   3.015988E+00   0.000000E+00   2.380294E+00   2.982874E+00   0.000000E+00   2.899569E+00   2.862867E+00   0.000000E+00   3.391552E+00   2.937347E+00   0.000000E+00   3.958069E+00   3.115668E+00   0.000000E+00   3.593143E+00   3.282665E+00   0.000000E+00   4.128172E+00   3.477224E+00   0.000000E+00   4.574742E+00   3.442774E+00   0.000000E+00   4.999119E+00   3.425012E+00   0.000000E+00   5.447116E+00   3.434898E+00   0.000000E+00   5.421336E+00   4.108314E+00   0.000000E+00   5.889127E+00   6.286232E+00   0.000000E+00   5.278580E+00   8.248403E+00   0.000000E+00   1.999518E-01   3.800297E+00   0.000000E+00   5.504344E-01   3.600718E+00   0.000000E+00   1.283885E+00   3.248904E+00   0.000000E+00   1.719484E+00   3.358562E+00   0.000000E+00   2.176779E+00   3.326224E+00   0.000000E+00   2.703413E+00   3.218390E+00   0.000000E+00   3.103062E+00   3.213464E+00   0.000000E+00   3.301324E+00   3.560827E+00   0.000000E+00   3.727183E+00   3.659853E+00   0.000000E+00   4.386105E+00   3.799400E+00   0.000000E+00   4.790688E+00   3.780214E+00   0.000000E+00   5.212201E+00   3.764250E+00   0.000000E+00   4.865208E+00   4.503648E+00   0.000000E+00   5.557416E+00   4.844084E+00   0.000000E+00   5.189467E+00   5.968129E+00   0.000000E+00   7.846531E+00   6.219070E+00   0.000000E+00   1.990890E-01   4.199787E+00   0.000000E+00   5.627255E-01   4.000165E+00   0.000000E+00   9.458401E-01   3.480468E+00   0.000000E+00   1.420349E+00   3.623848E+00   0.000000E+00   1.971899E+00   3.668689E+00   0.000000E+00   2.497541E+00   3.564068E+00   0.000000E+00   2.897363E+00   3.568168E+00   0.000000E+00   3.096272E+00   3.914865E+00   0.000000E+00   2.891977E+00   4.259280E+00   0.000000E+00   3.490445E+00   3.982316E+00  
[...]
<PointData Scalars="Diameter" Vectors="Velocity">
<DataArray type="Float32" Name="Diameter" format="ascii">
  4.000000E-01   4.000000E-01   4.000000E-01   4.000000E-01   4.000000E-01   4.000000E-01   4.000000E-01   4.000000E-01   4.000000E-01   4.000000E-01   4.000000E-01   4.000000E-01   4.000000E-01   4.000000E-01   4.000000E-01   4.000000E-01   4.000000E-01   4.000000E-01   4.000000E-01   4.000000E-01   4.000000E-01   4.000000E-01   4.000000E-01   4.000000E-01   4.000000E-01   4.000000E-01   4.000000E-01   4.000000E-01   4.000000E-01   4.000000E-01   4.000000E-01   4.000000E-01   4.000000E-01   4.000000E-01   4.000000E-01   4.000000E-01   4.000000E-01   4.000000E-01   4.000000E-01   4.000000E-01   4.000000E-01   4.000000E-01   4.000000E-01   4.000000E-01   4.000000E-01   4.000000E-01   4.000000E-01   4.000000E-01   4.000000E-01   4.000000E-01   4.000000E-01   4.000000E-01   4.000000E-01   4.000000E-01   4.000000E-01   4.000000E-01   4.000000E-01   4.000000E-01   4.000000E-01   4.000000E-01   4.000000E-01   4.000000E-01   4.000000E-01   4.000000E-01   4.000000E-01   4.000000E-01   4.000000E-01   4.000000E-01   4.000000E-01   4.000000E-01   4.000000E-01   4.000000E-01   4.000000E-01   4.000000E-01   4.000000E-01   4.000000E-01   4.000000E-01   4.000000E-01   4.000000E-01   4.000000E-01   4.000000E-01   4.000000E-01   4.000000E-01   4.000000E-01   4.000000E-01   4.000000E-01   4.000000E-01   4.000000E-01   4.000000E-01   4.000000E-01   4.000000E-01   4.000000E-01   4.000000E-01   4.000000E-01   4.000000E-01   4.000000E-01   4.000000E-01   4.000000E-01   4.000000E-01   4.000000E-01   4.000000E-01   4.000000E-01   4.000000E-01   4.000000E-01   4.000000E-01   4.000000E-01   4.000000E-01   4.000000E-01   4.000000E-01   4.000000E-01   4.000000E-01   4.000000E-01   4.000000E-01   4.000000E-01   4.000000E-01   4.000000E-01   4.000000E-01   4.000000E-01   4.000000E-01   4.000000E-01   4.000000E-01   4.000000E-01   4.000000E-01   4.000000E-01   4.000000E-01   4.000000E-01   4.000000E-01   4.000000E-01   4.000000E-01   4.000000E-01   4.000000E-01   4.000000E-01   4.000000E-01   4.000000E-01   4.000000E-01   4.000000E-01   4.000000E-01   4.000000E-01   4.000000E-01   4.000000E-01   4.000000E-01   4.000000E-01   4.000000E-01   4.000000E-01   4.000000E-01   4.000000E-01   4.000000E-01   4.000000E-01   4.000000E-01   4.000000E-01   4.000000E-01   4.000000E-01   4.000000E-01   4.000000E-01   4.000000E-01   4.000000E-01   4.000000E-01   4.000000E-01   4.000000E-01   4.000000E-01   4.000000E-01   4.000000E-01   4.000000E-01   4.000000E-01   4.000000E-01   4.000000E-01   4.000000E-01   4.000000E-01   4.000000E-01   4.000000E-01   4.000000E-01   4.000000E-01   4.000000E-01   4.000000E-01   4.000000E-01   4.000000E-01   4.000000E-01   4.000000E-01   4.000000E-01   4.000000E-01   4.000000E-01   4.000000E-01   4.000000E-01   4.000000E-01   4.000000E-01   4.000000E-01   4.000000E-01   4.000000E-01   4.000000E-01   4.000000E-01   4.000000E-01   4.000000E-01   4.000000E-01   4.000000E-01   4.000000E-01   4.000000E-01   4.000000E-01   4.000000E-01   4.000000E-01   4.000000E-01   4.000000E-01   4.000000E-01   4.000000E-01   4.000000E-01   4.000000E-01   4.000000E-01   4.000000E-01   4.000000E-01   4.000000E-01   4.000000E-01   4.000000E-01   4.000000E-01   4.000000E-01   4.000000E-01   4.000000E-01   4.000000E-01   4.000000E-01   4.000000E-01   4.000000E-01   4.000000E-01   4.000000E-01   4.000000E-01   4.000000E-01   4.000000E-01   4.000000E-01   4.000000E-01   4.000000E-01   4.000000E-01   4.000000E-01   4.000000E-01   4.000000E-01   4.000000E-01   4.000000E-01   4.000000E-01   4.000000E-01   4.000000E-01   4.000000E-01   4.000000E-01   4.000000E-01   4.000000E-01   4.000000E-01   4.000000E-01   4.000000E-01   4.000000E-01   4.000000E-01   4.000000E-01   4.000000E-01   4.000000E-01   4.000000E-01   4.000000E-01   4.000000E-01   4.000000E-01   4.000000E-01   4.000000E-01   4.000000E-01   4.000000E-01   4.000000E-01   4.000000E-01   4.000000E-01   4.000000E-01   4.000000E-01   4.000000E-01   4.000000E-01   4.000000E-01   4.000000E-01   4.000000E-01   4.000000E-01   4.000000E-01   4.000000E-01   4.000000E-01   4.000000E-01   4.000000E-01   4.000000E-01   4.000000E-01   4.000000E-01   4.000000E-01   4.000000E-01   4.000000E-01   4.000000E-01   4.000000E-01   4.000000E-01   4.000000E-01   4.000000E-01   4.000000E-01   4.000000E-01   4.000000E-01   4.000000E-01   4.000000E-01   4.000000E-01   4.000000E-01   4.000000E-01   4.000000E-01   4.000000E-01   4.000000E-01   4.000000E-01   4.000000E-01   4.000000E-01   4.000000E-01   4.000000E-01   4.000000E-01   4.000000E-01   4.000000E-01   4.000000E-01   4.000000E-01   4.000000E-01   4.000000E-01   4.000000E-01   4.000000E-01   4.000000E-01   4.000000E-01   4.000000E-01   4.000000E-01   4.000000E-01   4.000000E-01   4.000000E-01   4.000000E-01   4.000000E-01   4.000000E-01   4.000000E-01   4.000000E-01   4.000000E-01   4.000000E-01   4.000000E-01   4.000000E-01   4.000000E-01   4.000000E-01   4.000000E-01   4.000000E-01   4.000000E-01   4.000000E-01   4.000000E-01   4.000000E-01   4.000000E-01   4.000000E-01   4.000000E-01   4.000000E-01   4.000000E-01   4.000000E-01   4.000000E-01   4.000000E-01   4.000000E-01   4.000000E-01   4.000000E-01   4.000000E-01   4.000000E-01   4.000000E-01   4.000000E-01   4.000000E-01   4.000000E-01   4.000000E-01   4.000000E-01   4.000000E-01   4.000000E-01   4.000000E-01   4.000000E-01   4.000000E-01   4.000000E-01   4.000000E-01   4.000000E-01   4.000000E-01   4.000000E-01   4.000000E-01   4.000000E-01   4.000000E-01   4.000000E-01   4.000000E-01   4.000000E-01   4.000000E-01   4.000000E-01   4.000000E-01   4.000000E-01   4.000000E-01   4.000000E-01   4.000000E-01   4.000000E-01   4.000000E-01   4.000000E-01   4.000000E-01   4.000000E-01   4.000000E-01   4.000000E-01   4.000000E-01   4.000000E-01   4.000000E-01   4.000000E-01   4.000000E-01   4.000000E-01   4.000000E-01   4.000000E-01   4.000000E-01   4.000000E-01   4.000000E-01   4.000000E-01   4.000000E-01   4.000000E-01   4.000000E-01   4.000000E-01   4.000000E-01   4.000000E-01   4.000000E-01   4.000000E-01   4.000000E-01   4.000000E-01   4.000000E-01   4.000000E-01   4.000000E-01   4.000000E-01   4.000000E-01   4.000000E-01   4.000000E-01   4.000000E-01   4.000000E-01   4.000000E-01   4.000000E-01   4.000000E-01   4.000000E-01   4.000000E-01   4.000000E-01   4.000000E-01   4.000000E-01   4.000000E-01   4.000000E-01   4.000000E-01   4.000000E-01   4.000000E-01   4.000000E-01   4.000000E-01   4.000000E-01   4.000000E-01   4.000000E-01   4.000000E-01   4.000000E-01   4.000000E-01   4.000000E-01   4.000000E-01   4.000000E-01   4.000000E-01   4.000000E-01   4.000000E-01   4.000000E-01   4.000000E-01   4.000000E-01   4.000000E-01   4.000000E-01   4.000000E-01   4.000000E-01   4.000000E-01   4.000000E-01   4.000000E-01   4.000000E-01   4.000000E-01   4.000000E-01   4.000000E-01   4.000000E-01   4.000000E-01   4.000000E-01   4.000000E-01   4.000000E-01   4.000000E-01   4.000000E-01   4.000000E-01   4.000000E-01   4.000000E-01   4.000000E-01   4.000000E-01   4.000000E-01   4.000000E-01   4.000000E-01   4.000000E-01   4.000000E-01   4.000000E-01   4.000000E-01   4.000000E-01   4.000000E-01   4.000000E-01   4.000000E-01   4.000000E-01   4.000000E-01   4.000000E-01   4.000000E-01   4.000000E-01   4.000000E-01   4.000000E-01   4.000000E-01   4.000000E-01   4.000000E-01   4.000000E-01   4.000000E-01   4.000000E-01   4.000000E-01   4.000000E-01   4.000000E-01   4.000000E-01   4.000000E-01   4.000000E-01   4.000000E-01   4.000000E-01   4.000000E-01   4.000000E-01   4.000000E-01   4.000000E-01   4.000000E-01   4.000000E-01   4.000000E-01   4.000000E-01   4.000000E-01   4.000000E-01   4.000000E-01   4.000000E-01   4.000000E-01   4.000000E-01   4.000000E-01   4.000000E-01   4.000000E-01   4.000000E-01   4.000000E-01   4.000000E-01   4.000000E-01   4.000000E-01   4.000000E-01   4.000000E-01   4.000000E-01   4.000000E-01   4.000000E-01   4.000000E-01   4.000000E-01   4.000000E-01   4.000000E-01   4.000000E-01   4.000000E-01   4.000000E-01   4.000000E-01   4.000000E-01   4.000000E-01   4.000000E-01   4.000000E-01   4.000000E-01   4.000000E-01   4.000000E-01   4.000000E-01   4.000000E-01   4.000000E-01   4.000000E-01   4.000000E-01   4.000000E-01   4.000000E-01   4.000000E-01   4.000000E-01   4.000000E-01   4.000000E-01   4.000000E-01   4.000000E-01   4.000000E-01   4.000000E-01   4.000000E-01   4.000000E-01   4.000000E-01   4.000000E-01   4.000000E-01   4.000000E-01   4.000000E-01   4.000000E-01   4.000000E-01   4.000000E-01   4.000000E-01   4.000000E-01   4.000000E-01   4.000000E-01   4.000000E-01   4.000000E-01   4.000000E-01   4.000000E-01   4.000000E-01   4.000000E-01   4.000000E-01   4.000000E-01   4.000000E-01   4.000000E-01   4.000000E-01   4.000000E-01   4.000000E-01   4.000000E-01   4.000000E-01   4.000000E-01   4.000000E-01   4.000000E-01   4.000000E-01   4.000000E-01   4.000000E-01   4.000000E-01   4.000000E-01   4.000000E-01   4.000000E-01   4.000000E-01   4.000000E-01   4.000000E-01   4.000000E-01   4.000000E-01   4.000000E-01   4.000000E-01   4.000000E-01   4.000000E-01   4.000000E-01   4.000000E-01   4.000000E-01   4.000000E-01   4.000000E-01   4.000000E-01   4.000000E-01   4.000000E-01   4.000000E-01   4.000000E-01   4.000000E-01   4.000000E-01   4.000000E-01   4.000000E-01   4.000000E-01   4.000000E-01   4.000000E-01   4.000000E-01   4.000000E-01   4.000000E-01   4.000000E-01   4.000000E-01   4.000000E-01   4.000000E-01   4.000000E-01   4.000000E-01   4.000000E-01   4.000000E-01   4.000000E-01   4.000000E-01   4.000000E-01   4.000000E-01   4.000000E-01   4.000000E-01   4.000000E-01   4.000000E-01   4.000000E-01   4.000000E-01   4.000000E-01   4.000000E-01   4.000000E-01   4.000000E-01   4.000000E-01   4.000000E-01   4.000000E-01   4.000000E-01   4.000000E-01   4.000000E-01   4.000000E-01   4.000000E-01   4.000000E-01   4.000000E-01   4.000000E-01   4.000000E-01   4.000000E-01   4.000000E-01   4.000000E-01   4.000000E-01   4.000000E-01   4.000000E-01   4.000000E-01   4.000000E-01   4.000000E-01   4.000000E-01   4.000000E-01   4.000000E-01   4.000000E-01   4.000000E-01   4.000000E-01   4.000000E-01   4.000000E-01   4.000000E-01   4.000000E-01   4.000000E-01   4.000000E-01   4.000000E-01   4.000000E-01   4.000000E-01   4.000000E-01   4.000000E-01   4.000000E-01   4.000000E-01   4.000000E-01   4.000000E-01   4.000000E-01   4.000000E-01   4.000000E-01   4.000000E-01   4.000000E-01   4.000000E-01   4.000000E-01   4.000000E-01   4.000000E-01   4.000000E-01   4.000000E-01   4.000000E-01   4.000000E-01   4.000000E-01   4.000000E-01   4.000000E-01   4.000000E-01   4.000000E-01   4.000000E-01   4.000000E-01   4.000000E-01   4.000000E-01   4.000000E-01   4.000000E-01   4.000000E-01   4.000000E-01   4.000000E-01   4.000000E-01   4.000000E-01   4.000000E-01   4.000000E-01   4.000000E-01   4.000000E-01   4.000000E-01   4.000000E-01   4.000000E-01   4.000000E-01   4.000000E-01   4.000000E-01   4.000000E-01   4.000000E-01   4.000000E-01   4.000000E-01   4.000000E-01   4.000000E-01   4.000000E-01   4.000000E-01   4.000000E-01   4.000000E-01   4.000000E-01   4.000000E-01   4.000000E-01   4.000000E-01   4.000000E-01   4.000000E-01   4.000000E-01   4.000000E-01   4.000000E-01   4.000000E-01   4.000000E-01   4.000000E-01   4.000000E-01   4.000000E-01   4.000000E-01   4.000000E-01   4.000000E-01   4.000000E-01   4.000000E-01   4.000000E-01   4.000000E-01   4.000000E-01   4.000000E-01   4.000000E-01   4.000000E-01   4.000000E-01   4.000000E-01   4.000000E-01   4.000000E-01   4.000000E-01   4.000000E-01   4.000000E-01   4.000000E-01   4.000000E-01   4.000000E-01   4.000000E-01   4.000000E-01   4.000000E-01   4.000000E-01   4.000000E-01   4.000000E-01   4.000000E-01   4.000000E-01   4.000000E-01   4.000000E-01   4.000000E-01   4.000000E-01   4.000000E-01   4.000000E-01   4.000000E-01   4.000000E-01   4.000000E-01   4.000000E-01   4.000000E-01   4.000000E-01   4.000000E-01   4.000000E-01   4.000000E-01   4.000000E-01   4.000000E-01   4.000000E-01   4.000000E-01   4.000000E-01   4.000000E-01   4.000000E-01   4.000000E-01   4.000000E-01   4.000000E-01   4.000000E-01   4.000000E-01   4.000000E-01   4.000000E-01   4.000000E-01   4.000000E-01   4.000000E-01   4.000000E-01   4.000000E-01   4.000000E-01   4.000000E-01   4.000000E-01   4.000000E-01   4.000000E-01   4.000000E-01   4.000000E-01   4.000000E-01   4.000000E-01   4.000000E-01   4.000000E-01   4.000000E-01   4.000000E-01   4.000000E-01   4.000000E-01   4.000000E-01   4.000000E-01   4.000000E-01   4.000000E-01   4.000000E-01   4.000000E-01   4.000000E-01   4.000000E-01   4.000000E-01   4.000000E-01   4.000000E-01   4.000000E-01   4.000000E-01   4.000000E-01   4.000000E-01   4.000000E-01   4.000000E-01   4.000000E-01   4.000000E-01   4.000000E-01   4.000000E-01   4.000000E-01   4.000000E-01   4.000000E-01   4.000000E-01   4.000000E-01   4.000000E-01   4.000000E-01   4.000000E-01   4.000000E-01   4.000000E-01   4.000000E-01   4.000000E-01   4.000000E-01   4.000000E-01   4.000000E-01   4.000000E-01   4.000000E-01   4.000000E-01   4.000000E-01   4.000000E-01   4.000000E-01   4.000000E-01   4.000000E-01   4.000000E-01   4.000000E-01   4.000000E-01   4.000000E-01   4.000000E-01   4.000000E-01   4.000000E-01   4.000000E-01   4.000000E-01   4.000000E-01   4.000000E-01   4.000000E-01   4.000000E-01   4.000000E-01   4.000000E-01   4.000000E-01   4.000000E-01   4.000000E-01   4.000000E-01   4.000000E-01   4.000000E-01   4.000000E-01   4.000000E-01   4.000000E-01   4.000000E-01   4.000000E-01   4.000000E-01   4.000000E-01   4.000000E-01   4.000000E-01   4.000000E-01   4.000000E-01   4.000000E-01   4.000000E-01   4.000000E-01   4.000000E-01   4.000000E-01   4.000000E-01   4.000000E-01   4.000000E-01   4.000000E-01   4.000000E-01   4.000000E-01   4.000000E-01   4.000000E-01   4.000000E-01   4.000000E-01   4.000000E-01   4.000000E-01   4.000000E-01   4.000000E-01   4.000000E-01   4.000000E-01   4.000000E-01   4.000000E-01   4.000000E-01   4.000000E-01   4.000000E-01   4.000000E-01   4.000000E-01   4.000000E-01   4.000000E-01   4.000000E-01   4.000000E-01   4.000000E-01   4.000000E-01   4.000000E-01   4.000000E-01   4.000000E-01   4.000000E-01   4.000000E-01   4.000000E-01   4.000000E-01   4.000000E-01   4.000000E-01   4.000000E-01   4.000000E-01   4.000000E-01   4.000000E-01   4.000000E-01   4.000000E-01   4.000000E-01   4.000000E-01   4.000000E-01   4.000000E-01   4.000000E-01   4.000000E-01   4.000000E-01   4.000000E-01   4.000000E-01   4.000000E-01   4.000000E-01   4.000000E-01   4.000000E-01   4.000000E-01   4.000000E-01   4.000000E-01   4.000000E-01   4.000000E-01   4.000000E-01   4.000000E-01   4.000000E-01   4.000000E-01   4.000000E-01   4.000000E-01   4.000000E-01   4.000000E-01   4.000000E-01   4.000000E-01   4.000000E-01   4.000000E-01   4.000000E-01   4.000000E-01   4.000000E-01   4.000000E-01   4.000000E-01   4.000000E-01   4.000000E-01   4.000000E-01   4.000000E-01   4.000000E-01   4.000000E-01   4.000000E-01   4.000000E-01   4.000000E-01   4.000000E-01   4.000000E-01   4.000000E-01   4.000000E-01   4.000000E-01   4.000000E-01   4.000000E-01   4.000000E-01   4.000000E-01   4.000000E-01   4.000000E-01   4.000000E-01   4.000000E-01   4.000000E-01   4.000000E-01   4.000000E-01   4.000000E-01   4.000000E-01   4.000000E-01   4.000000E-01   4.000000E-01   4.000000E-01   4.000000E-01   4.000000E-01   4.000000E-01   4.000000E-01   4.000000E-01   4.000000E-01   4.000000E-01   4.000000E-01   4.000000E-01   4.000000E-01   4.000000E-01   4.000000E-01   4.000000E-01   4.000000E-01   4.000000E-01   4.000000E-01   4.000000E-01   4.000000E-01   4.000000E-01   4.000000E-01   4.000000E-01   4.000000E-01   4.000000E-01   4.000000E-01   4.000000E-01   4.000000E-01   4.000000E-01   4.000000E-01   4.000000E-01   4.000000E-01   4.000000E-01   4.000000E-01   4.000000E-01   4.000000E-01   4.000000E-01   4.000000E-01   4.000000E-01   4.000000E-01   4.000000E-01   4.000000E-01   4.000000E-01   4.000000E-01   4.000000E-01   4.000000E-01   4.000000E-01   4.000000E-01   4.000000E-01   4.000000E-01   4.000000E-01   4.000000E-01   4.000000E-01   4.000000E-01   4.000000E-01   4.000000E-01   4.000000E-01   4.000000E-01   4.000000E-01   4.000000E-01   4.000000E-01   4.000000E-01   4.000000E-01   4.000000E-01   4.000000E-01   4.000000E-01   4.000000E-01   4.000000E-01   4.000000E-01   4.000000E-01   4.000000E-01   4.000000E-01   4.000000E-01   4.000000E-01   4.000000E-01   4.000000E-01   4.000000E-01   4.000000E-01   4.000000E-01   4.000000E-01   4.000000E-01   4.000000E-01   4.000000E-01   4.000000E-01   4.000000E-01   4.000000E-01   4.000000E-01   4.000000E-01   4.000000E-01   4.000000E-01   4.000000E-01   4.000000E-01   4.000000E-01   4.000000E-01   4.000000E-01   4.000000E-01   4.000000E-01   4.000000E-01   4.000000E-01   4.000000E-01   4.000000E-01   4.000000E-01   4.000000E-01   4.000000E-01   4.000000E-01   4.000000E-01   4.000000E-01   4.000000E-01   4.000000E-01   4.000000E-01   4.000000E-01   4.000000E-01   4.000000E-01   4.000000E-01   4.000000E-01   4.000000E-01   4.000000E-01   4.000000E-01   4.000000E-01   4.000000E-01   4.000000E-01   4.000000E-01   4.000000E-01   4.000000E-01   4.000000E-01   4.000000E-01   4.000000E-01   4.000000E-01   4.000000E-01   4.000000E-01   4.000000E-01   4.000000E-01   4.000000E-01   4.000000E-01   4.000000E-01   4.000000E-01   4.000000E-01   4.000000E-01   4.000000E-01   4.000000E-01   4.000000E-01   4.000000E-01   4.000000E-01   4.000000E-01   4.000000E-01   4.000000E-01   4.000000E-01   4.000000E-01   4.000000E-01   4.000000E-01   4.000000E-01   4.000000E-01   4.000000E-01   4.000000E-01   4.000000E-01   4.000000E-01   4.000000E-01   4.000000E-01   4.000000E-01   4.000000E-01   4.000000E-01   4.000000E-01   4.000000E-01   4.000000E-01   4.000000E-01   4.000000E-01   4.000000E-01   4.000000E-01   4.000000E-01   4.000000E-01   4.000000E-01   4.000000E-01   4.000000E-01   4.000000E-01   4.000000E-01   4.000000E-01   4.000000E-01   4.000000E-01   4.000000E-01   4.000000E-01   4.000000E-01   4.000000E-01   4.000000E-01   4.000000E-01   4.000000E-01   4.000000E-01   4.000000E-01   4.000000E-01   4.000000E-01   4.000000E-01   4.000000E-01   4.000000E-01   4.000000E-01   4.000000E-01   4.000000E-01   4.000000E-01   4.000000E-01   4.000000E-01   4.000000E-01   4.000000E-01   4.000000E-01   4.000000E-01   4.000000E-01   4.000000E-01   4.000000E-01   4.000000E-01   4.000000E-01   4.000000E-01   4.000000E-01   4.000000E-01   4.000000E-01   4.000000E-01   4.000000E-01   4.000000E-01   4.000000E-01   4.000000E-01   4.000000E-01   4.000000E-01   4.000000E-01   4.000000E-01   4.000000E-01   4.000000E-01   4.000000E-01   4.000000E-01   4.000000E-01   4.000000E-01   4.000000E-01   4.000000E-01   4.000000E-01   4.000000E-01   4.000000E-01   4.000000E-01   4.000000E-01   4.000000E-01   4.000000E-01   4.000000E-01   4.000000E-01   4.000000E-01   4.000000E-01   4.000000E-01   4.000000E-01   4.000000E-01   4.000000E-01   4.000000E-01   4.000000E-01   4.000000E-01   4.000000E-01   4.000000E-01   4.000000E-01   4.000000E-01   4.000000E-01   4.000000E-01   4.000000E-01   4.000000E-01   4.000000E-01   4.000000E-01   4.000000E-01   4.000000E-01   4.000000E-01   4.000000E-01   4.000000E-01   4.000000E-01   4.000000E-01   4.000000E-01   4.000000E-01   4.000000E-01   4.000000E-01   4.000000E-01   4.000000E-01   4.000000E-01   4.000000E-01   4.000000E-01   4.000000E-01   4.000000E-01   4.000000E-01   4.000000E-01   4.000000E-01   4.000000E-01   4.000000E-01   4.000000E-01   4.000000E-01   4.000000E-01   4.000000E-01   4.000000E-01   4.000000E-01   4.000000E-01   4.000000E-01   4.000000E-01   4.000000E-01   4.000000E-01   4.000000E-01   4.000000E-01   4.000000E-01   4.000000E-01   4.000000E-01   4.000000E-01   4.000000E-01   4.000000E-01   4.000000E-01   4.000000E-01   4.000000E-01   4.000000E-01   4.000000E-01   4.000000E-01   4.000000E-01   4.000000E-01   4.000000E-01   4.000000E-01   4.000000E-01   4.000000E-01   