<?xml version="1.0"?>
<!-- Time =  1.0004502926947707E+00s -->
<VTKFile type="PolyData" version="0.1" byte_order="LittleEndian">
<PolyData>
<Piece NumberOfPoints="0000002400" NumberOfVerts="0" NumberOfLines="0" NumberOfStrips="0" NumberOfPolys="0">
<Points>
<DataArray type="Float32" Name="Position" NumberOfComponents="3" format="ascii">
  9.294093E-01   1.971094E-01   0.000000E+00   1.652897E+00   1.970967E-01   0.000000E+00   2.867291E+00   1.971169E-01   0.000000E+00   6.630908E+00   1.854241E+00   0.000000E+00   4.878553E+00   2.130271E+01   0.000000E+00   7.456574E+00   2.263134E+01   0.000000E+00   7.790073E+00   7.974704E+00   0.000000E+00   7.763188E+00   2.236922E+01   0.000000E+00   6.013829E+00   2.802019E+01   0.000000E+00   4.112877E+00   1.461733E+01   0.000000E+00   5.673987E+00   2.217429E+01   0.000000E+00   1.998611E-01   2.005781E-01   0.000000E+00   1.291098E+00   3.667457E-01   0.000000E+00   2.052579E+00   1.985226E-01   0.000000E+00   4.830513E+00   1.999563E-01   0.000000E+00   6.221810E+00   8.615023E+00   0.000000E+00   5.907196E+00   2.102373E+01   0.000000E+00   6.241539E+00   4.207992E+00   0.000000E+00   7.640878E+00   1.008138E+01   0.000000E+00   7.376894E+00   7.764706E+00   0.000000E+00   7.954508E+00   3.093515E+01   0.000000E+00   2.678518E+00   1.690593E+01   0.000000E+00   6.695645E+00   2.270394E+01   0.000000E+00   3.675410E+00   2.644831E+01   0.000000E+00   4.990765E+00   2.585111E+01   0.000000E+00   5.235805E+00   2.807326E+01   0.000000E+00   6.228968E+00   1.434750E+01   0.000000E+00   4.068983E+00   2.467471E+01   0.000000E+00   5.654387E-01   3.625423E-01   0.000000E+00   1.734784E+00   5.858316E-01   0.000000E+00   4.418871E+00   1.981252E-01   0.000000E+00   6.040302E+00   2.001067E-01   0.000000E+00   7.960572E+00   1.328956E+01   0.000000E+00   4.273523E+00   1.765631E+01   0.000000E+00   5.515965E+00   1.444286E+01   0.000000E+00   6.228101E+00   2.994390E+01   0.000000E+00   7.164520E+00   6.142406E+00   0.000000E+00   5.838444E+00   6.973113E+00   0.000000E+00   6.268021E+00   1.313795E+01   0.000000E+00   7.085001E+00   1.229273E+01   0.000000E+00   4.455662E+00   1.439895E+01   0.000000E+00   3.665856E+00   1.367416E+01   0.000000E+00   4.626533E+00   2.541036E+01   0.000000E+00   1.997995E-01   6.009406E-01   0.000000E+00   9.431208E-01   5.946576E-01   0.000000E+00   1.305356E+00   7.661145E-01   0.000000E+00   3.587157E+00   1.993812E-01   0.000000E+00   4.622509E+00   5.412281E-01   0.000000E+00   6.029758E+00   6.034480E+00   0.000000E+00   6.149206E+00   2.268131E+01   0.000000E+00   5.085749E+00   2.647074E+01   0.000000E+00   3.305277E+00   2.158907E+01   0.000000E+00   7.075800E+00   3.070553E+01   0.000000E+00   3.312128E+00   1.447465E+01   0.000000E+00   5.251078E+00   2.195873E+01   0.000000E+00   3.195269E+00   1.713089E+01   0.000000E+00   5.672722E-01   7.625697E-01   0.000000E+00   9.094978E-01   9.913216E-01   0.000000E+00   2.453643E+00   1.997474E-01   0.000000E+00   3.226321E+00   3.718248E-01   0.000000E+00   5.304137E+00   1.993186E-01   0.000000E+00   7.503570E+00   1.859264E+01   0.000000E+00   4.798381E+00   2.169798E+01   0.000000E+00   7.872688E+00   7.402325E+00   0.000000E+00   4.550294E+00   2.626611E+01   0.000000E+00   3.459013E+00   1.666831E+01   0.000000E+00   2.002570E-01   1.000249E+00   0.000000E+00   5.579693E-01   1.181949E+00   0.000000E+00   1.647609E+00   9.733016E-01   0.000000E+00   2.133941E+00   5.886621E-01   0.000000E+00   4.019703E+00   1.995998E-01   0.000000E+00   5.923572E+00   1.568355E+01   0.000000E+00   5.892533E+00   2.344736E+01   0.000000E+00   5.476199E+00   2.955109E+01   0.000000E+00   4.234698E+00   1.345965E+01   0.000000E+00   6.246631E+00   1.213730E+01   0.000000E+00   2.002616E-01   1.399102E+00   0.000000E+00   1.269621E+00   1.164379E+00   0.000000E+00   1.612632E+00   1.368983E+00   0.000000E+00   2.669280E+00   5.419116E-01   0.000000E+00   6.442505E+00   2.368225E-01   0.000000E+00   6.794502E+00   4.347199E-01   0.000000E+00   5.106009E+00   1.892268E+01   0.000000E+00   6.584593E+00   2.878289E+01   0.000000E+00   5.265449E+00   2.894449E+01   0.000000E+00   5.430237E+00   1.236817E+01   0.000000E+00   4.480266E+00   2.837430E+01   0.000000E+00   5.364403E+00   1.277485E+01   0.000000E+00   5.544351E-01   1.585487E+00   0.000000E+00   9.030464E-01   1.389604E+00   0.000000E+00   1.263781E+00   1.564328E+00   0.000000E+00   2.050291E+00   9.947556E-01   0.000000E+00   5.072477E+00   5.245650E-01   0.000000E+00   6.321779E+00   2.165598E+00   0.000000E+00   4.459747E+00   1.617705E+01   0.000000E+00   5.651162E+00   1.941564E+01   0.000000E+00   4.409841E+00   1.992722E+01   0.000000E+00   5.608714E+00   2.790592E+01   0.000000E+00   5.076435E+00   2.947677E+01   0.000000E+00   4.860269E+00   1.288578E+01   0.000000E+00   6.324960E+00   1.786519E+01   0.000000E+00   2.660891E+00   1.796122E+01   0.000000E+00   2.703367E+00   1.940925E+01   0.000000E+00   3.726576E+00   1.448155E+01   0.000000E+00   2.000879E-01   1.797902E+00   0.000000E+00   9.029590E-01   1.787917E+00   0.000000E+00   1.612745E+00   1.766458E+00   0.000000E+00   2.427326E+00   8.578256E-01   0.000000E+00   3.803483E+00   5.352666E-01   0.000000E+00   7.925807E+00   2.013825E+01   0.000000E+00   7.170424E+00   1.886909E+01   0.000000E+00   5.678170E+00   1.536343E+01   0.000000E+00   7.368916E+00   9.315014E+00   0.000000E+00   4.794069E+00   2.755640E+01   0.000000E+00   4.395304E+00   2.710872E+01   0.000000E+00   5.781115E+00   1.286917E+01   0.000000E+00   6.634737E+00   1.440926E+01   0.000000E+00   7.143592E+00   2.638851E+01   0.000000E+00   1.996385E-01   2.196321E+00   0.000000E+00   5.537047E-01   1.985113E+00   0.000000E+00   1.261669E+00   1.964373E+00   0.000000E+00   2.006860E+00   1.435058E+00   0.000000E+00   2.361120E+00   1.249133E+00   0.000000E+00   5.672252E+00   3.560869E-01   0.000000E+00   4.589449E+00   1.902074E+01   0.000000E+00   7.857146E+00   2.275047E+01   0.000000E+00   7.509843E+00   3.055113E+01   0.000000E+00   2.849394E+00   1.836968E+01   0.000000E+00   4.025620E+00   1.295853E+01   0.000000E+00   3.244590E+00   2.092933E+01   0.000000E+00   1.994163E-01   2.594370E+00   0.000000E+00   5.519943E-01   2.384696E+00   0.000000E+00   1.607862E+00   2.164332E+00   0.000000E+00   2.005853E+00   1.837134E+00   0.000000E+00   3.027298E+00   7.190049E-01   0.000000E+00   4.859611E+00   8.624411E-01   0.000000E+00   6.137178E+00   2.545871E+00   0.000000E+00   7.829301E+00   4.439890E+00   0.000000E+00   7.347306E+00   2.975202E+01   0.000000E+00   3.203088E+00   1.409057E+01   0.000000E+00   4.178452E+00   2.539336E+01   0.000000E+00   2.818070E+00   1.728338E+01   0.000000E+00   6.905383E+00   2.164696E+01   0.000000E+00   3.396647E+00   1.515636E+01   0.000000E+00   1.998366E-01   2.992577E+00   0.000000E+00   5.510542E-01   2.784317E+00   0.000000E+00   8.990832E-01   2.186536E+00   0.000000E+00   1.256996E+00   2.364710E+00   0.000000E+00   2.355823E+00   1.645563E+00   0.000000E+00   3.442789E+00   7.076092E-01   0.000000E+00   6.585843E+00   7.764850E-01   0.000000E+00   7.974494E+00   1.286660E+01   0.000000E+00   7.605665E+00   1.903834E+01   0.000000E+00   7.787955E+00   1.975890E+01   0.000000E+00   7.811759E+00   2.051954E+01   0.000000E+00   5.712360E+00   2.063467E+01   0.000000E+00   5.318334E+00   2.993029E+01   0.000000E+00   5.454637E+00   2.720509E+01   0.000000E+00   5.989956E+00   1.342785E+01   0.000000E+00   5.998010E+00   3.029180E+01   0.000000E+00   6.346627E+00   1.497175E+01   0.000000E+00   1.999091E-01   3.390945E+00   0.000000E+00   5.506852E-01   3.183804E+00   0.000000E+00   8.978292E-01   2.585135E+00   0.000000E+00   1.604819E+00   2.562282E+00   0.000000E+00   2.001305E+00   2.236533E+00   0.000000E+00   4.220683E+00   5.447811E-01   0.000000E+00   7.909179E+00   1.876000E+01   0.000000E+00   7.624352E+00   1.306459E+01   0.000000E+00   6.130759E+00   2.186571E+01   0.000000E+00   6.611869E+00   2.941700E+01   0.000000E+00   7.742786E+00   8.419670E+00   0.000000E+00   7.848702E+00   5.143940E-01   0.000000E+00   5.328230E+00   1.516505E+01   0.000000E+00   4.558814E+00   1.839893E+01   0.000000E+00   6.088392E+00   8.025669E+00   0.000000E+00   1.998001E-01   3.789470E+00   0.000000E+00   5.502753E-01   3.583386E+00   0.000000E+00   8.971745E-01   2.983876E+00   0.000000E+00   1.254215E+00   2.765833E+00   0.000000E+00   1.603416E+00   2.960435E+00   0.000000E+00   2.351412E+00   2.042875E+00   0.000000E+00   5.439814E+00   6.841298E-01   0.000000E+00   6.538592E+00   2.680173E+00   0.000000E+00   4.403970E+00   9.003117E-01   0.000000E+00   5.215950E+00   1.043548E+00   0.000000E+00   5.938561E+00   2.302322E+01   0.000000E+00   5.374413E+00   2.282706E+01   0.000000E+00   3.670582E+00   2.179361E+01   0.000000E+00   4.319445E+00   2.389412E+01   0.000000E+00   3.689455E+00   1.407807E+01   0.000000E+00   1.998765E-01   4.187986E+00   0.000000E+00   5.496381E-01   3.983065E+00   0.000000E+00   8.973789E-01   3.382724E+00   0.000000E+00   1.252117E+00   3.167338E+00   0.000000E+00   1.997903E+00   2.636012E+00   0.000000E+00   2.784224E+00   1.039155E+00   0.000000E+00   2.346962E+00   2.440514E+00   0.000000E+00   2.345135E+00   2.838452E+00   0.000000E+00   2.716625E+00   1.434926E+00   0.000000E+00   4.003811E+00   8.804699E-01   0.000000E+00   6.215258E+00   5.657666E-01   0.000000E+00   5.382286E+00   3.260525E+00   0.000000E+00   5.936284E+00   1.766103E+01   0.000000E+00   7.240248E+00   3.022252E+01   0.000000E+00   4.435897E+00   1.299323E+01   0.000000E+00   1.993619E-01   4.586497E+00   0.000000E+00   5.490376E-01   4.382814E+00   0.000000E+00   8.974985E-01   3.781594E+00   0.000000E+00   1.250593E+00   3.569676E+00   0.000000E+00   1.603238E+00   3.358834E+00   0.000000E+00   1.996292E+00   3.035531E+00   0.000000E+00   1.995264E+00   3.435603E+00   0.000000E+00   2.700395E+00   2.237451E+00   0.000000E+00   2.706367E+00   1.837807E+00  
[...]
<PointData Scalars="Diameter" Vectors="Velocity">
<DataArray type="Float32" Name="Diameter" format="ascii">
  4.000000E-01   4.000000E-01   4.000000E-01   4.000000E-01   4.000000E-01   4.000000E-01   4.000000E-01   4.000000E-01   4.000000E-01   4.000000E-01   4.000000E-01   4.000000E-01   4.000000E-01   4.000000E-01   4.000000E-01   4.000000E-01   4.000000E-01   4.000000E-01   4.000000E-01   4.000000E-01   4.000000E-01   4.000000E-01   4.000000E-01   4.000000E-01   4.000000E-01   4.000000E-01   4.000000E-01   4.000000E-01   4.000000E-01   4.000000E-01   4.000000E-01   4.000000E-01   4.000000E-01   4.000000E-01   4.000000E-01   4.000000E-01   4.000000E-01   4.000000E-01   4.000000E-01   4.000000E-01   4.000000E-01   4.000000E-01   4.000000E-01   4.000000E-01   4.000000E-01   4.000000E-01   4.000000E-01   4.000000E-01   4.000000E-01   4.000000E-01   4.000000E-01   4.000000E-01   4.000000E-01   4.000000E-01   4.000000E-01   4.000000E-01   4.000000E-01   4.000000E-01   4.000000E-01   4.000000E-01   4.000000E-01   4.000000E-01   4.000000E-01   4.000000E-01   4.000000E-01   4.000000E-01   4.000000E-01   4.000000E-01   4.000000E-01   4.000000E-01   4.000000E-01   4.000000E-01   4.000000E-01   4.000000E-01   4.000000E-01   4.000000E-01   4.000000E-01   4.000000E-01   4.000000E-01   4.000000E-01   4.000000E-01   4.000000E-01   4.000000E-01   4.000000E-01   4.000000E-01   4.000000E-01   4.000000E-01   4.000000E-01   4.000000E-01   4.000000E-01   4.000000E-01   4.000000E-01   4.000000E-01   4.000000E-01   4.000000E-01   4.000000E-01   4.000000E-01   4.000000E-01   4.000000E-01   4.000000E-01   4.000000E-01   4.000000E-01   4.000000E-01   4.000000E-01   4.000000E-01   4.000000E-01   4.000000E-01   4.000000E-01   4.000000E-01   4.000000E-01   4.000000E-01   4.000000E-01   4.000000E-01   4.000000E-01   4.000000E-01   4.000000E-01   4.000000E-01   4.000000E-01   4.000000E-01   4.000000E-01   4.000000E-01   4.000000E-01   4.000000E-01   4.000000E-01   4.000000E-01   4.000000E-01   4.000000E-01   4.000000E-01   4.000000E-01   4.000000E-01   4.000000E-01   4.000000E-01   4.000000E-01   4.000000E-01   4.000000E-01   4.000000E-01   4.000000E-01   4.000000E-01   4.000000E-01   4.000000E-01   4.000000E-01   4.000000E-01   4.000000E-01   4.000000E-01   4.000000E-01   4.000000E-01   4.000000E-01   4.000000E-01   4.000000E-01   4.000000E-01   4.000000E-01   4.000000E-01   4.000000E-01   4.000000E-01   4.000000E-01   4.000000E-01   4.000000E-01   4.000000E-01   4.000000E-01   4.000000E-01   4.000000E-01   4.000000E-01   4.000000E-01   4.000000E-01   4.000000E-01   4.000000E-01   4.000000E-01   4.000000E-01   4.000000E-01   4.000000E-01   4.000000E-01   4.000000E-01   4.000000E-01   4.000000E-01   4.000000E-01   4.000000E-01   4.000000E-01   4.000000E-01   4.000000E-01   4.000000E-01   4.000000E-01   4.000000E-01   4.000000E-01   4.000000E-01   4.000000E-01   4.000000E-01   4.000000E-01   4.000000E-01   4.000000E-01   4.000000E-01   4.000000E-01   4.000000E-01   4.000000E-01   4.000000E-01   4.000000E-01   4.000000E-01   4.000000E-01   4.000000E-01   4.000000E-01   4.000000E-01   4.000000E-01   4.000000E-01   4.000000E-01   4.000000E-01   4.000000E-01   4.000000E-01   4.000000E-01   4.000000E-01   4.000000E-01   4.000000E-01   4.000000E-01   4.000000E-01   4.000000E-01   4.000000E-01   4.000000E-01   4.000000E-01   4.000000E-01   4.000000E-01   4.000000E-01   4.000000E-01   4.000000E-01   4.000000E-01   4.000000E-01   4.000000E-01   4.000000E-01   4.000000E-01   4.000000E-01   4.000000E-01   4.000000E-01   4.000000E-01   4.000000E-01   4.000000E-01   4.000000E-01   4.000000E-01   4.000000E-01   4.000000E-01   4.000000E-01   4.000000E-01   4.000000E-01   4.000000E-01   4.000000E-01   4.000000E-01   4.000000E-01   4.000000E-01   4.000000E-01   4.000000E-01   4.000000E-01   4.000000E-01   4.000000E-01   4.000000E-01   4.000000E-01   4.000000E-01   4.000000E-01   4.000000E-01   4.000000E-01   4.000000E-01   4.000000E-01   4.000000E-01   4.000000E-01   4.000000E-01   4.000000E-01   4.000000E-01   4.000000E-01   4.000000E-01   4.000000E-01   4.000000E-01   4.000000E-01   4.000000E-01   4.000000E-01   4.000000E-01   4.000000E-01   4.000000E-01   4.000000E-01   4.000000E-01   4.000000E-01   4.000000E-01   4.000000E-01   4.000000E-01   4.000000E-01   4.000000E-01   4.000000E-01   4.000000E-01   4.000000E-01   4.000000E-01   4.000000E-01   4.000000E-01   4.000000E-01   4.000000E-01   4.000000E-01   4.000000E-01   4.000000E-01   4.000000E-01   4.000000E-01   4.000000E-01   4.000000E-01   4.000000E-01   4.000000E-01   4.000000E-01   4.000000E-01   4.000000E-01   4.000000E-01   4.000000E-01   4.000000E-01   4.000000E-01   4.000000E-01   4.000000E-01   4.000000E-01   4.000000E-01   4.000000E-01   4.000000E-01   4.000000E-01   4.000000E-01   4.000000E-01   4.000000E-01   4.000000E-01   4.000000E-01   4.000000E-01   4.000000E-01   4.000000E-01   4.000000E-01   4.000000E-01   4.000000E-01   4.000000E-01   4.000000E-01   4.000000E-01   4.000000E-01   4.000000E-01   4.000000E-01   4.000000E-01   4.000000E-01   4.000000E-01   4.000000E-01   4.000000E-01   4.000000E-01   4.000000E-01   4.000000E-01   4.000000E-01   4.000000E-01   4.000000E-01   4.000000E-01   4.000000E-01   4.000000E-01   4.000000E-01   4.000000E-01   4.000000E-01   4.000000E-01   4.000000E-01   4.000000E-01   4.000000E-01   4.000000E-01   4.000000E-01   4.000000E-01   4.000000E-01   4.000000E-01   4.000000E-01   4.000000E-01   4.000000E-01   4.000000E-01   4.000000E-01   4.000000E-01   4.000000E-01   4.000000E-01   4.000000E-01   4.000000E-01   4.000000E-01   4.000000E-01   4.000000E-01   4.000000E-01   4.000000E-01   4.000000E-01   4.000000E-01   4.000000E-01   4.000000E-01   4.000000E-01   4.000000E-01   4.000000E-01   4.000000E-01   4.000000E-01   4.000000E-01   4.000000E-01   4.000000E-01   4.000000E-01   4.000000E-01   4.000000E-01   4.000000E-01   4.000000E-01   4.000000E-01   4.000000E-01   4.000000E-01   4.000000E-01   4.000000E-01   4.000000E-01   4.000000E-01   4.000000E-01   4.000000E-01   4.000000E-01   4.000000E-01   4.000000E-01   4.000000E-01   4.000000E-01   4.000000E-01   4.000000E-01   4.000000E-01   4.000000E-01   4.000000E-01   4.000000E-01   4.000000E-01   4.000000E-01   4.000000E-01   4.000000E-01   4.000000E-01   4.000000E-01   4.000000E-01   4.000000E-01   4.000000E-01   4.000000E-01   4.000000E-01   4.000000E-01   4.000000E-01   4.000000E-01   4.000000E-01   4.000000E-01   4.000000E-01   4.000000E-01   4.000000E-01   4.000000E-01   4.000000E-01   4.000000E-01   4.000000E-01   4.000000E-01   4.000000E-01   4.000000E-01   4.000000E-01   4.000000E-01   4.000000E-01   4.000000E-01   4.000000E-01   4.000000E-01   4.000000E-01   4.000000E-01   4.000000E-01   4.000000E-01   4.000000E-01   4.000000E-01   4.000000E-01   4.000000E-01   4.000000E-01   4.000000E-01   4.000000E-01   4.000000E-01   4.000000E-01   4.000000E-01   4.000000E-01   4.000000E-01   4.000000E-01   4.000000E-01   4.000000E-01   4.000000E-01   4.000000E-01   4.000000E-01   4.000000E-01   4.000000E-01   4.000000E-01   4.000000E-01   4.000000E-01   4.000000E-01   4.000000E-01   4.000000E-01   4.000000E-01   4.000000E-01   4.000000E-01   4.000000E-01   4.000000E-01   4.000000E-01   4.000000E-01   4.000000E-01   4.000000E-01   4.000000E-01   4.000000E-01   4.000000E-01   4.000000E-01   4.000000E-01   4.000000E-01   4.000000E-01   4.000000E-01   4.000000E-01   4.000000E-01   4.000000E-01   4.000000E-01   4.000000E-01   4.000000E-01   4.000000E-01   4.000000E-01   4.000000E-01   4.000000E-01   4.000000E-01   4.000000E-01   4.000000E-01   4.000000E-01   4.000000E-01   4.000000E-01   4.000000E-01   4.000000E-01   4.000000E-01   4.000000E-01   4.000000E-01   4.000000E-01   4.000000E-01   4.000000E-01   4.000000E-01   4.000000E-01   4.000000E-01   4.000000E-01   4.000000E-01   4.000000E-01   4.000000E-01   4.000000E-01   4.000000E-01   4.000000E-01   4.000000E-01   4.000000E-01   4.000000E-01   4.000000E-01   4.000000E-01   4.000000E-01   4.000000E-01   4.000000E-01   4.000000E-01   4.000000E-01   4.000000E-01   4.000000E-01   4.000000E-01   4.000000E-01   4.000000E-01   4.000000E-01   4.000000E-01   4.000000E-01   4.000000E-01   4.000000E-01   4.000000E-01   4.000000E-01   4.000000E-01   4.000000E-01   4.000000E-01   4.000000E-01   4.000000E-01   4.000000E-01   4.000000E-01   4.000000E-01   4.000000E-01   4.000000E-01   4.000000E-01   4.000000E-01   4.000000E-01   4.000000E-01   4.000000E-01   4.000000E-01   4.000000E-01   4.000000E-01   4.000000E-01   4.000000E-01   4.000000E-01   4.000000E-01   4.000000E-01   4.000000E-01   4.000000E-01   4.000000E-01   4.000000E-01   4.000000E-01   4.000000E-01   4.000000E-01   4.000000E-01   4.000000E-01   4.000000E-01   4.000000E-01   4.000000E-01   4.000000E-01   4.000000E-01   4.000000E-01   4.000000E-01   4.000000E-01   4.000000E-01   4.000000E-01   4.000000E-01   4.000000E-01   4.000000E-01   4.000000E-01   4.000000E-01   4.000000E-01   4.000000E-01   4.000000E-01   4.000000E-01   4.000000E-01   4.000000E-01   4.000000E-01   4.000000E-01   4.000000E-01   4.000000E-01   4.000000E-01   4.000000E-01   4.000000E-01   4.000000E-01   4.000000E-01   4.000000E-01   4.000000E-01   4.000000E-01   4.000000E-01   4.000000E-01   4.000000E-01   4.000000E-01   4.000000E-01   4.000000E-01   4.000000E-01   4.000000E-01   4.000000E-01   4.000000E-01   4.000000E-01   4.000000E-01   4.000000E-01   4.000000E-01   4.000000E-01   4.000000E-01   4.000000E-01   4.000000E-01   4.000000E-01   4.000000E-01   4.000000E-01   4.000000E-01   4.000000E-01   4.000000E-01   4.000000E-01   4.000000E-01   4.000000E-01   4.000000E-01   4.000000E-01   4.000000E-01   4.000000E-01   4.000000E-01   4.000000E-01   4.000000E-01   4.000000E-01   4.000000E-01   4.000000E-01   4.000000E-01   4.000000E-01   4.000000E-01   4.000000E-01   4.000000E-01   4.000000E-01   4.000000E-01   4.000000E-01   4.000000E-01   4.000000E-01   4.000000E-01   4.000000E-01   4.000000E-01   4.000000E-01   4.000000E-01   4.000000E-01   4.000000E-01   4.000000E-01   4.000000E-01   4.000000E-01   4.000000E-01   4.000000E-01   4.000000E-01   4.000000E-01   4.000000E-01   4.000000E-01   4.000000E-01   4.000000E-01   4.000000E-01   4.000000E-01   4.000000E-01   4.000000E-01   4.000000E-01   4.000000E-01   4.000000E-01   4.000000E-01   4.000000E-01   4.000000E-01   4.000000E-01   4.000000E-01   4.000000E-01   4.000000E-01   4.000000E-01   4.000000E-01   4.000000E-01   4.000000E-01   4.000000E-01   4.000000E-01   4.000000E-01   4.000000E-01   4.000000E-01   4.000000E-01   4.000000E-01   4.000000E-01   4.000000E-01   4.000000E-01   4.000000E-01   4.000000E-01   4.000000E-01   4.000000E-01   4.000000E-01   4.000000E-01   4.000000E-01   4.000000E-01   4.000000E-01   4.000000E-01   4.000000E-01   4.000000E-01   4.000000E-01   4.000000E-01   4.000000E-01   4.000000E-01   4.000000E-01   4.000000E-01   4.000000E-01   4.000000E-01   4.000000E-01   4.000000E-01   4.000000E-01   4.000000E-01   4.000000E-01   4.000000E-01   4.000000E-01   4.000000E-01   4.000000E-01   4.000000E-01   4.000000E-01   4.000000E-01   4.000000E-01   4.000000E-01   4.000000E-01   4.000000E-01   4.000000E-01   4.000000E-01   4.000000E-01   4.000000E-01   4.000000E-01   4.000000E-01   4.000000E-01   4.000000E-01   4.000000E-01   4.000000E-01   4.000000E-01   4.000000E-01   4.000000E-01   4.000000E-01   4.000000E-01   4.000000E-01   4.000000E-01   4.000000E-01   4.000000E-01   4.000000E-01   4.000000E-01   4.000000E-01   4.000000E-01   4.000000E-01   4.000000E-01   4.000000E-01   4.000000E-01   4.000000E-01   4.000000E-01   4.000000E-01   4.000000E-01   4.000000E-01   4.000000E-01   4.000000E-01   4.000000E-01   4.000000E-01   4.000000E-01   4.000000E-01   4.000000E-01   4.000000E-01   4.000000E-01   4.000000E-01   4.000000E-01   4.000000E-01   4.000000E-01   4.000000E-01   4.000000E-01   4.000000E-01   4.000000E-01   4.000000E-01   4.000000E-01   4.000000E-01   4.000000E-01   4.000000E-01   4.000000E-01   4.000000E-01   4.000000E-01   4.000000E-01   4.000000E-01   4.000000E-01   4.000000E-01   4.000000E-01   4.000000E-01   4.000000E-01   4.000000E-01   4.000000E-01   4.000000E-01   4.000000E-01   4.000000E-01   4.000000E-01   4.000000E-01   4.000000E-01   4.000000E-01   4.000000E-01   4.000000E-01   4.000000E-01   4.000000E-01   4.000000E-01   4.000000E-01   4.000000E-01   4.000000E-01   4.000000E-01   4.000000E-01   4.000000E-01   4.000000E-01   4.000000E-01   4.000000E-01   4.000000E-01   4.000000E-01   4.000000E-01   4.000000E-01   4.000000E-01   4.000000E-01   4.000000E-01   4.000000E-01   4.000000E-01   4.000000E-01   4.000000E-01   4.000000E-01   4.000000E-01   4.000000E-01   4.000000E-01   4.000000E-01   4.000000E-01   4.000000E-01   4.000000E-01   4.000000E-01   4.000000E-01   4.000000E-01   4.000000E-01   4.000000E-01   4.000000E-01   4.000000E-01   4.000000E-01   4.000000E-01   4.000000E-01   4.000000E-01   4.000000E-01   4.000000E-01   4.000000E-01   4.000000E-01   4.000000E-01   4.000000E-01   4.000000E-01   4.000000E-01   4.000000E-01   4.000000E-01   4.000000E-01   4.000000E-01   4.000000E-01   4.000000E-01   4.000000E-01   4.000000E-01   4.000000E-01   4.000000E-01   4.000000E-01   4.000000E-01   4.000000E-01   4.000000E-01   4.000000E-01   4.000000E-01   4.000000E-01   4.000000E-01   4.000000E-01   4.000000E-01   4.000000E-01   4.000000E-01   4.000000E-01   4.000000E-01   4.000000E-01   4.000000E-01   4.000000E-01   4.000000E-01   4.000000E-01   4.000000E-01   4.000000E-01   4.000000E-01   4.000000E-01   4.000000E-01   4.000000E-01   4.000000E-01   4.000000E-01   4.000000E-01   4.000000E-01   4.000000E-01   4.000000E-01   4.000000E-01   4.000000E-01   4.000000E-01   4.000000E-01   4.000000E-01   4.000000E-01   4.000000E-01   4.000000E-01   4.000000E-01   4.000000E-01   4.000000E-01   4.000000E-01   4.000000E-01   4.000000E-01   4.000000E-01   4.000000E-01   4.000000E-01   4.000000E-01   4.000000E-01   4.000000E-01   4.000000E-01   4.000000E-01   4.000000E-01   4.000000E-01   4.000000E-01   4.000000E-01   4.000000E-01   4.000000E-01   4.000000E-01   4.000000E-01   4.000000E-01   4.000000E-01   4.000000E-01   4.000000E-01   4.000000E-01   4.000000E-01   4.000000E-01   4.000000E-01   4.000000E-01   4.000000E-01   4.000000E-01   4.000000E-01   4.000000E-01   4.000000E-01   4.000000E-01   4.000000E-01   4.000000E-01   4.000000E-01   4.000000E-01   4.000000E-01   4.000000E-01   4.000000E-01   4.000000E-01   4.000000E-01   4.000000E-01   4.000000E-01   4.000000E-01   4.000000E-01   4.000000E-01   4.000000E-01   4.000000E-01   4.000000E-01   4.000000E-01   4.000000E-01   4.000000E-01   4.000000E-01   4.000000E-01   4.000000E-01   4.000000E-01   4.000000E-01   4.000000E-01   4.000000E-01   4.000000E-01   4.000000E-01   4.000000E-01   4.000000E-01   4.000000E-01   4.000000E-01   4.000000E-01   4.000000E-01   4.000000E-01   4.000000E-01   4.000000E-01   4.000000E-01   4.000000E-01   4.000000E-01   4.000000E-01   4.000000E-01   4.000000E-01   4.000000E-01   4.000000E-01   4.000000E-01   4.000000E-01   4.000000E-01   4.000000E-01   4.000000E-01   4.000000E-01   4.000000E-01   4.000000E-01   4.000000E-01   4.000000E-01   4.000000E-01   4.000000E-01   4.000000E-01   4.000000E-01   4.000000E-01   4.000000E-01   4.000000E-01   4.000000E-01   4.000000E-01   4.000000E-01   4.000000E-01   4.000000E-01   4.000000E-01   4.000000E-01   4.000000E-01   4.000000E-01   4.000000E-01   4.000000E-01   4.000000E-01   4.000000E-01   4.000000E-01   4.000000E-01   4.000000E-01   4.000000E-01   4.000000E-01   4.000000E-01   4.000000E-01   4.000000E-01   4.000000E-01   4.000000E-01   4.000000E-01   4.000000E-01   4.000000E-01   4.000000E-01   4.000000E-01   4.000000E-01   4.000000E-01   4.000000E-01   4.000000E-01   4.000000E-01   4.000000E-01   4.000000E-01   4.000000E-01   4.000000E-01   4.000000E-01   4.000000E-01   4.000000E-01   4.000000E-01   4.000000E-01   4.000000E-01   4.000000E-01   4.000000E-01   4.000000E-01   4.000000E-01   4.000000E-01   4.000000E-01   4.000000E-01   4.000000E-01   4.000000E-01   4.000000E-01   4.000000E-01   4.000000E-01   4.000000E-01   4.000000E-01   4.000000E-01   4.000000E-01   4.000000E-01   4.000000E-01   4.000000E-01   4.000000E-01   4.000000E-01   4.000000E-01   4.000000E-01   4.000000E-01   4.000000E-01   4.000000E-01   4.000000E-01   4.000000E-01   4.000000E-01   4.000000E-01   4.000000E-01   4.000000E-01   4.000000E-01   4.000000E-01   4.000000E-01   4.000000E-01   4.000000E-01   4.000000E-01   4.000000E-01   4.000000E-01   4.000000E-01   4.000000E-01   4.000000E-01   4.000000E-01   4.000000E-01   4.000000E-01   4.000000E-01   4.000000E-01   4.000000E-01   4.000000E-01   4.000000E-01   4.000000E-01   4.000000E-01   4.000000E-01   4.000000E-01   4.000000E-01   4.000000E-01   4.000000E-01   4.000000E-01   4.000000E-01   4.000000E-01   4.000000E-01   4.000000E-01   4.000000E-01   4.000000E-01   4.000000E-01   4.000000E-01   4.000000E-01   4.000000E-01   4.000000E-01   4.000000E-01   4.000000E-01   4.000000E-01   4.000000E-01   4.000000E-01   4.000000E-01   4.000000E-01   4.000000E-01   4.000000E-01   4.000000E-01   4.000000E-01   4.000000E-01   4.000000E-01   4.000000E-01   4.000000E-01   4.000000E-01   4.000000E-01   4.000000E-01   4.000000E-01   4.000000E-01   4.000000E-01   4.000000E-01   4.000000E-01   4.000000E-01   4.000000E-01   4.000000E-01   4.000000E-01   4.000000E-01   4.000000E-01   4.000000E-01   4.000000E-01   4.000000E-01   4.000000E-01   4.000000E-01   4.000000E-01   4.000000E-01   4.000000E-01   4.000000E-01   4.000000E-01   4.000000E-01   4.000000E-01   4.000000E-01   4.000000E-01   4.000000E-01   4.000000E-01   4.000000E-01   4.000000E-01   4.000000E-01   4.000000E-01   4.000000E-01   4.000000E-01   4.000000E-01   4.000000E-01   4.000000E-01   4.000000E-01   4.000000E-01   4.000000E-01   4.000000E-01   4.000000E-01   4.000000E-01   4.000000E-01   4.000000E-01   4.000000E-01   4.000000E-01   4.000000E-01   4.000000E-01   4.000000E-01   4.000000E-01   4.000000E-01   4.000000E-01   4.000000E-01   4.000000E-01   4.000000E-01   4.000000E-01   4.000000E-01   4.000000E-01   4.000000E-01   4.000000E-01   4.000000E-01   4.000000E-01   4.000000E-01   4.000000E-01   4.000000E-01   4.000000E-01   4.000000E-01   4.000000E-01   4.000000E-01   4.000000E-01   4.000000E-01   4.000000E-01   4.000000E-01   4.000000E-01   4.000000E-01   4.000000E-01   4.000000E-01   4.000000E-01   4.000000E-01   4.000000E-01   4.000000E-01   4.000000E-01   4.000000E-01   4.000000E-01   4.000000E-01   4.000000E-01   4.000000E-01   4.000000E-01   4.000000E-01   4.000000E-01   4.000000E-01   4.000000E-01   4.000000E-01   4.000000E-01   4.000000E-01   4.000000E-01   4.000000E-01   4.000000E-01   4.000000E-01   4.000000E-01   4.000000E-01   4.000000E-01   4.000000E-01   4.000000E-01   4.000000E-01   4.000000E-01   4.000000E-01   4.000000E-01   4.000000E-01   4.000000E-01   4.000000E-01   4.000000E-01   4.000000E-01   4.000000E-01   4.000000E-01   4.000000E-01   4.000000E-01   4.000000E-01   4.000000E-01   4.000000E-01   4.000000E-01   4.000000E-01   4.000000E-01   4.000000E-01   4.000000E-01   4.000000E-01   4.000000E-01   4.000000E-01   4.000000E-01   4.000000E-01   4.000000E-01   4.000000E-01   4.000000E-01   4.000000E-01   4.000000E-01   4.000000E-01   4.000000E-01   4.000000E-01   4.000000E-01   4.000000E-01   4.000000E-01   4.000000E-01   4.000000E-01   4.000000E-01   4.000000E-01   4.000000E-01   4.000000E-01   4.000000E-01   4.000000E-01   4.000000E-01   4.000000E-01   4.000000E-01   4.000000E-01   4.000000E-01   4.000000E-01   4.000000E-01   4.000000E-01   4.000000E-01   4.000000E-01   4.000000E-01   4.000000E-01   4.000000E-01   4.000000E-01   4.000000E-01   4.000000E-01   4.000000E-01   4.000000E-01   4.000000E-01   4.000000E-01   4.000000E-01   4.000000E-01   4.000000E-01   4.000000E-01   4.000000E-01   4.000000E-01   4.000000E-01   4.000000E-01   4.000000E-01   4.000000E-01   4.000000E-01   4.000000E-01   4.000000E-01   4.000000E-01   4.000000E-01   4.000000E-01   4.000000E-01   