<?xml version="1.0"?>
<!-- Time =  9.0045029269477028E-01s -->
<VTKFile type="PolyData" version="0.1" byte_order="LittleEndian">
<PolyData>
<Piece NumberOfPoints="0000002400" NumberOfVerts="0" NumberOfLines="0" NumberOfStrips="0" NumberOfPolys="0">
<Points>
<DataArray type="Float32" Name="Position" NumberOfComponents="3" format="ascii">
  8.941072E-01   1.973042E-01   0.000000E+00   1.589134E+00   1.979977E-01   0.000000E+00   2.625803E+00   1.998356E-01   0.000000E+00   6.186994E+00   1.997547E-01   0.000000E+00   6.392845E+00   1.862064E+01   0.000000E+00   7.445096E+00   2.149040E+01   0.000000E+00   6.650403E+00   2.786275E+01   0.000000E+00   2.804221E+00   1.738654E+01   0.000000E+00   6.925635E+00   2.311036E+01   0.000000E+00   1.989325E-01   1.976507E-01   0.000000E+00   1.241367E+00   3.935130E-01   0.000000E+00   1.988083E+00   1.987362E-01   0.000000E+00   4.049467E+00   1.993605E-01   0.000000E+00   6.700372E+00   2.386541E+00   0.000000E+00   6.909353E+00   1.894126E+01   0.000000E+00   7.440688E+00   2.837945E+00   0.000000E+00   7.890411E+00   2.937851E+01   0.000000E+00   3.014828E+00   2.127263E+01   0.000000E+00   6.830956E+00   2.412462E+01   0.000000E+00   4.545976E+00   2.799236E+01   0.000000E+00   5.899490E+00   2.715207E+01   0.000000E+00   5.710702E+00   2.837355E+01   0.000000E+00   4.721002E+00   1.310874E+01   0.000000E+00   4.767087E+00   2.696302E+01   0.000000E+00   5.464934E-01   3.935482E-01   0.000000E+00   1.593051E+00   5.963225E-01   0.000000E+00   3.548497E+00   1.976904E-01   0.000000E+00   4.986694E+00   1.992461E-01   0.000000E+00   6.546769E+00   6.961175E+00   0.000000E+00   5.766456E+00   1.865315E+01   0.000000E+00   3.976155E+00   1.497867E+01   0.000000E+00   6.625233E+00   2.919527E+01   0.000000E+00   4.477360E+00   1.251548E+01   0.000000E+00   5.141127E+00   1.025401E+01   0.000000E+00   3.083744E+00   1.638228E+01   0.000000E+00   2.571670E+00   1.577064E+01   0.000000E+00   5.187707E+00   2.723047E+01   0.000000E+00   1.994267E-01   5.957564E-01   0.000000E+00   8.951056E-01   5.953996E-01   0.000000E+00   1.244568E+00   7.926729E-01   0.000000E+00   3.025648E+00   1.996950E-01   0.000000E+00   3.797178E+00   5.091921E-01   0.000000E+00   6.538482E+00   4.594775E-01   0.000000E+00   6.467404E+00   2.476392E+01   0.000000E+00   5.843415E+00   2.758879E+01   0.000000E+00   4.251626E+00   2.508277E+01   0.000000E+00   7.156240E+00   2.972696E+01   0.000000E+00   2.410922E+00   1.777399E+01   0.000000E+00   6.689507E+00   2.270616E+01   0.000000E+00   3.482638E+00   2.116153E+01   0.000000E+00   7.862809E+00   7.320478E+00   0.000000E+00   5.472773E-01   7.926942E-01   0.000000E+00   8.940502E-01   9.935384E-01   0.000000E+00   2.305697E+00   4.393596E-01   0.000000E+00   2.829981E+00   5.484242E-01   0.000000E+00   4.466207E+00   1.993530E-01   0.000000E+00   6.170871E+00   2.163404E+01   0.000000E+00   7.859922E+00   6.458614E+00   0.000000E+00   5.229892E+00   2.770064E+01   0.000000E+00   3.523628E+00   2.056692E+01   0.000000E+00   1.995417E-01   9.939259E-01   0.000000E+00   5.467539E-01   1.191802E+00   0.000000E+00   1.594164E+00   9.946823E-01   0.000000E+00   1.990728E+00   6.860858E-01   0.000000E+00   3.289050E+00   5.000495E-01   0.000000E+00   7.177960E+00   6.677742E+00   0.000000E+00   4.422181E+00   1.515230E+01   0.000000E+00   6.173289E+00   2.574553E+01   0.000000E+00   6.100199E+00   2.928631E+01   0.000000E+00   2.765685E+00   1.509310E+01   0.000000E+00   4.486185E+00   1.171779E+01   0.000000E+00   1.995819E-01   1.392158E+00   0.000000E+00   1.241125E+00   1.191885E+00   0.000000E+00   1.586680E+00   1.393055E+00   0.000000E+00   2.506002E+00   7.839326E-01   0.000000E+00   5.386463E+00   1.994625E-01   0.000000E+00   5.786213E+00   2.002202E-01   0.000000E+00   5.887222E+00   1.603695E+01   0.000000E+00   7.888894E+00   2.159889E+01   0.000000E+00   7.152437E+00   2.793880E+01   0.000000E+00   5.859149E+00   2.876356E+01   0.000000E+00   3.857968E+00   1.276726E+01   0.000000E+00   5.123487E+00   2.892354E+01   0.000000E+00   3.990646E+00   1.314649E+01   0.000000E+00   5.462398E-01   1.590926E+00   0.000000E+00   8.928397E-01   1.391893E+00   0.000000E+00   1.239120E+00   1.591078E+00   0.000000E+00   1.982893E+00   1.088765E+00   0.000000E+00   4.258124E+00   5.404053E-01   0.000000E+00   5.986549E+00   5.462493E-01   0.000000E+00   7.141275E+00   8.373394E+00   0.000000E+00   5.002476E+00   1.727786E+01   0.000000E+00   6.171875E+00   1.566790E+01   0.000000E+00   5.891375E+00   1.988209E+01   0.000000E+00   6.035517E+00   2.808799E+01   0.000000E+00   5.717264E+00   2.940496E+01   0.000000E+00   3.643644E+00   1.365250E+01   0.000000E+00   6.355171E+00   1.332969E+01   0.000000E+00   3.505586E+00   2.235755E+01   0.000000E+00   4.028717E+00   2.348646E+01   0.000000E+00   2.416466E+00   1.725282E+01   0.000000E+00   1.996608E-01   1.790663E+00   0.000000E+00   8.926149E-01   1.790609E+00   0.000000E+00   1.584761E+00   1.791401E+00   0.000000E+00   2.377196E+00   1.164317E+00   0.000000E+00   3.104089E+00   8.526623E-01   0.000000E+00   7.168288E+00   5.209922E+00   0.000000E+00   7.760561E+00   1.342672E+01   0.000000E+00   6.006843E+00   5.761026E+00   0.000000E+00   4.129384E+00   1.587644E+01   0.000000E+00   5.329003E+00   2.821012E+01   0.000000E+00   4.966135E+00   2.802593E+01   0.000000E+00   4.320904E+00   1.289299E+01   0.000000E+00   5.226724E+00   1.217827E+01   0.000000E+00   7.593330E+00   2.716566E+01   0.000000E+00   1.995832E-01   2.189413E+00   0.000000E+00   5.461485E-01   1.989849E+00   0.000000E+00   1.238314E+00   1.990256E+00   0.000000E+00   1.964341E+00   1.524843E+00   0.000000E+00   2.362355E+00   1.565039E+00   0.000000E+00   4.727327E+00   5.023817E-01   0.000000E+00   6.249227E+00   1.717054E+01   0.000000E+00   5.818025E+00   4.755587E+00   0.000000E+00   7.465265E+00   2.104700E+01   0.000000E+00   7.524960E+00   2.954343E+01   0.000000E+00   3.809377E+00   2.268827E+01   0.000000E+00   2.651477E+00   1.469595E+01   0.000000E+00   4.346369E+00   2.452243E+01   0.000000E+00   1.995664E-01   2.588290E+00   0.000000E+00   5.459834E-01   2.388817E+00   0.000000E+00   1.584507E+00   2.190012E+00   0.000000E+00   1.961083E+00   1.924979E+00   0.000000E+00   2.775090E+00   1.077693E+00   0.000000E+00   4.004671E+00   8.494113E-01   0.000000E+00   6.316129E+00   7.929631E-01   0.000000E+00   6.701156E+00   1.048408E+01   0.000000E+00   6.223502E+00   8.694532E+00   0.000000E+00   7.494431E+00   2.874019E+01   0.000000E+00   2.396327E+00   1.679849E+01   0.000000E+00   4.813137E+00   2.739096E+01   0.000000E+00   3.449667E+00   2.164934E+01   0.000000E+00   7.444683E+00   1.954583E+01   0.000000E+00   3.163830E+00   1.904766E+01   0.000000E+00   1.994080E-01   2.987190E+00   0.000000E+00   5.457885E-01   2.787781E+00   0.000000E+00   8.922762E-01   2.189698E+00   0.000000E+00   1.238628E+00   2.389312E+00   0.000000E+00   2.356997E+00   1.975826E+00   0.000000E+00   3.155770E+00   1.248514E+00   0.000000E+00   5.584990E+00   5.463189E-01   0.000000E+00   6.138830E+00   6.205732E+00   0.000000E+00   7.635117E+00   1.385606E+01   0.000000E+00   7.939310E+00   1.508595E+01   0.000000E+00   6.926569E+00   1.830214E+01   0.000000E+00   6.023761E+00   2.968104E+01   0.000000E+00   6.254940E+00   2.772469E+01   0.000000E+00   4.369860E+00   1.332311E+01   0.000000E+00   6.431309E+00   2.959383E+01   0.000000E+00   4.637042E+00   1.363678E+01   0.000000E+00   1.993977E-01   3.386141E+00   0.000000E+00   5.457214E-01   3.186619E+00   0.000000E+00   8.923522E-01   2.588634E+00   0.000000E+00   1.586605E+00   2.588742E+00   0.000000E+00   1.960460E+00   2.325279E+00   0.000000E+00   3.537224E+00   8.128241E-01   0.000000E+00   6.699725E+00   6.224631E+00   0.000000E+00   6.034069E+00   8.085411E+00   0.000000E+00   6.940275E+00   1.974253E+01   0.000000E+00   6.953315E+00   2.849534E+01   0.000000E+00   3.689462E+00   1.650153E+01   0.000000E+00   5.412419E+00   1.813350E+01   0.000000E+00   7.884026E+00   1.245651E+00   0.000000E+00   1.994662E-01   3.785090E+00   0.000000E+00   5.456005E-01   3.585710E+00   0.000000E+00   8.923646E-01   2.987403E+00   0.000000E+00   1.239093E+00   2.787987E+00   0.000000E+00   1.587109E+00   2.987450E+00   0.000000E+00   2.357100E+00   2.375610E+00   0.000000E+00   4.519359E+00   8.426638E-01   0.000000E+00   5.751685E+00   9.100227E-01   0.000000E+00   3.745256E+00   1.153274E+00   0.000000E+00   4.266653E+00   1.150490E+00   0.000000E+00   6.800781E+00   9.392076E+00   0.000000E+00   6.741382E+00   8.326485E+00   0.000000E+00   6.510540E+00   2.549244E+01   0.000000E+00   6.161814E+00   2.507859E+01   0.000000E+00   4.678195E+00   2.505494E+01   0.000000E+00   5.029214E+00   2.640579E+01   0.000000E+00   2.700269E+00   1.649121E+01   0.000000E+00   1.995782E-01   4.184069E+00   0.000000E+00   5.458124E-01   3.984866E+00   0.000000E+00   8.918151E-01   3.386105E+00   0.000000E+00   1.239467E+00   3.186627E+00   0.000000E+00   1.962765E+00   2.725202E+00   0.000000E+00   2.751244E+00   1.474234E+00   0.000000E+00   2.359621E+00   2.775533E+00   0.000000E+00   2.364486E+00   3.175284E+00   0.000000E+00   2.741815E+00   1.871658E+00   0.000000E+00   3.492989E+00   1.463237E+00   0.000000E+00   5.184722E+00   5.466053E-01   0.000000E+00   5.842473E+00   2.560219E+00   0.000000E+00   5.476945E+00   1.463140E+01   0.000000E+00   7.471446E+00   2.914324E+01   0.000000E+00   3.041871E+00   1.455455E+01   0.000000E+00   1.995963E-01   4.582975E+00   0.000000E+00   5.460244E-01   4.383908E+00   0.000000E+00   8.917072E-01   3.785349E+00   0.000000E+00   1.237487E+00   3.585482E+00   0.000000E+00   1.600698E+00   3.385916E+00   0.000000E+00   1.967455E+00   3.125141E+00   0.000000E+00   1.974251E+00   3.527931E+00   0.000000E+00   2.744805E+00   2.668632E+00   0.000000E+00   2.742767E+00   2.270226E+00   0.000000E+00   4.924227E+00   8.506024E-01   0.000000E+00   5.351392E+00   9.095896E-01  
[...]
<PointData Scalars="Diameter" Vectors="Velocity">
<DataArray type="Float32" Name="Diameter" format="ascii">
  4.000000E-01   4.000000E-01   4.000000E-01   4.000000E-01   4.000000E-01   4.000000E-01   4.000000E-01   4.000000E-01   4.000000E-01   4.000000E-01   4.000000E-01   4.000000E-01   4.000000E-01   4.000000E-01   4.000000E-01   4.000000E-01   4.000000E-01   4.000000E-01   4.000000E-01   4.000000E-01   4.000000E-01   4.000000E-01   4.000000E-01   4.000000E-01   4.000000E-01   4.000000E-01   4.000000E-01   4.000000E-01   4.000000E-01   4.000000E-01   4.000000E-01   4.000000E-01   4.000000E-01   4.000000E-01   4.000000E-01   4.000000E-01   4.000000E-01   4.000000E-01   4.000000E-01   4.000000E-01   4.000000E-01   4.000000E-01   4.000000E-01   4.000000E-01   4.000000E-01   4.000000E-01   4.000000E-01   4.000000E-01   4.000000E-01   4.000000E-01   4.000000E-01   4.000000E-01   4.000000E-01   4.000000E-01   4.000000E-01   4.000000E-01   4.000000E-01   4.000000E-01   4.000000E-01   4.000000E-01   4.000000E-01   4.000000E-01   4.000000E-01   4.000000E-01   4.000000E-01   4.000000E-01   4.000000E-01   4.000000E-01   4.000000E-01   4.000000E-01   4.000000E-01   4.000000E-01   4.000000E-01   4.000000E-01   4.000000E-01   4.000000E-01   4.000000E-01   4.000000E-01   4.000000E-01   4.000000E-01   4.000000E-01   4.000000E-01   4.000000E-01   4.000000E-01   4.000000E-01   4.000000E-01   4.000000E-01   4.000000E-01   4.000000E-01   4.000000E-01   4.000000E-01   4.000000E-01   4.000000E-01   4.000000E-01   4.000000E-01   4.000000E-01   4.000000E-01   4.000000E-01   4.000000E-01   4.000000E-01   4.000000E-01   4.000000E-01   4.000000E-01   4.000000E-01   4.000000E-01   4.000000E-01   4.000000E-01   4.000000E-01   4.000000E-01   4.000000E-01   4.000000E-01   4.000000E-01   4.000000E-01   4.000000E-01   4.000000E-01   4.000000E-01   4.000000E-01   4.000000E-01   4.000000E-01   4.000000E-01   4.000000E-01   4.000000E-01   4.000000E-01   4.000000E-01   4.000000E-01   4.000000E-01   4.000000E-01   4.000000E-01   4.000000E-01   4.000000E-01   4.000000E-01   4.000000E-01   4.000000E-01   4.000000E-01   4.000000E-01   4.000000E-01   4.000000E-01   4.000000E-01   4.000000E-01   4.000000E-01   4.000000E-01   4.000000E-01   4.000000E-01   4.000000E-01   4.000000E-01   4.000000E-01   4.000000E-01   4.000000E-01   4.000000E-01   4.000000E-01   4.000000E-01   4.000000E-01   4.000000E-01   4.000000E-01   4.000000E-01   4.000000E-01   4.000000E-01   4.000000E-01   4.000000E-01   4.000000E-01   4.000000E-01   4.000000E-01   4.000000E-01   4.000000E-01   4.000000E-01   4.000000E-01   4.000000E-01   4.000000E-01   4.000000E-01   4.000000E-01   4.000000E-01   4.000000E-01   4.000000E-01   4.000000E-01   4.000000E-01   4.000000E-01   4.000000E-01   4.000000E-01   4.000000E-01   4.000000E-01   4.000000E-01   4.000000E-01   4.000000E-01   4.000000E-01   4.000000E-01   4.000000E-01   4.000000E-01   4.000000E-01   4.000000E-01   4.000000E-01   4.000000E-01   4.000000E-01   4.000000E-01   4.000000E-01   4.000000E-01   4.000000E-01   4.000000E-01   4.000000E-01   4.000000E-01   4.000000E-01   4.000000E-01   4.000000E-01   4.000000E-01   4.000000E-01   4.000000E-01   4.000000E-01   4.000000E-01   4.000000E-01   4.000000E-01   4.000000E-01   4.000000E-01   4.000000E-01   4.000000E-01   4.000000E-01   4.000000E-01   4.000000E-01   4.000000E-01   4.000000E-01   4.000000E-01   4.000000E-01   4.000000E-01   4.000000E-01   4.000000E-01   4.000000E-01   4.000000E-01   4.000000E-01   4.000000E-01   4.000000E-01   4.000000E-01   4.000000E-01   4.000000E-01   4.000000E-01   4.000000E-01   4.000000E-01   4.000000E-01   4.000000E-01   4.000000E-01   4.000000E-01   4.000000E-01   4.000000E-01   4.000000E-01   4.000000E-01   4.000000E-01   4.000000E-01   4.000000E-01   4.000000E-01   4.000000E-01   4.000000E-01   4.000000E-01   4.000000E-01   4.000000E-01   4.000000E-01   4.000000E-01   4.000000E-01   4.000000E-01   4.000000E-01   4.000000E-01   4.000000E-01   4.000000E-01   4.000000E-01   4.000000E-01   4.000000E-01   4.000000E-01   4.000000E-01   4.000000E-01   4.000000E-01   4.000000E-01   4.000000E-01   4.000000E-01   4.000000E-01   4.000000E-01   4.000000E-01   4.000000E-01   4.000000E-01   4.000000E-01   4.000000E-01   4.000000E-01   4.000000E-01   4.000000E-01   4.000000E-01   4.000000E-01   4.000000E-01   4.000000E-01   4.000000E-01   4.000000E-01   4.000000E-01   4.000000E-01   4.000000E-01   4.000000E-01   4.000000E-01   4.000000E-01   4.000000E-01   4.000000E-01   4.000000E-01   4.000000E-01   4.000000E-01   4.000000E-01   4.000000E-01   4.000000E-01   4.000000E-01   4.000000E-01   4.000000E-01   4.000000E-01   4.000000E-01   4.000000E-01   4.000000E-01   4.000000E-01   4.000000E-01   4.000000E-01   4.000000E-01   4.000000E-01   4.000000E-01   4.000000E-01   4.000000E-01   4.000000E-01   4.000000E-01   4.000000E-01   4.000000E-01   4.000000E-01   4.000000E-01   4.000000E-01   4.000000E-01   4.000000E-01   4.000000E-01   4.000000E-01   4.000000E-01   4.000000E-01   4.000000E-01   4.000000E-01   4.000000E-01   4.000000E-01   4.000000E-01   4.000000E-01   4.000000E-01   4.000000E-01   4.000000E-01   4.000000E-01   4.000000E-01   4.000000E-01   4.000000E-01   4.000000E-01   4.000000E-01   4.000000E-01   4.000000E-01   4.000000E-01   4.000000E-01   4.000000E-01   4.000000E-01   4.000000E-01   4.000000E-01   4.000000E-01   4.000000E-01   4.000000E-01   4.000000E-01   4.000000E-01   4.000000E-01   4.000000E-01   4.000000E-01   4.000000E-01   4.000000E-01   4.000000E-01   4.000000E-01   4.000000E-01   4.000000E-01   4.000000E-01   4.000000E-01   4.000000E-01   4.000000E-01   4.000000E-01   4.000000E-01   4.000000E-01   4.000000E-01   4.000000E-01   4.000000E-01   4.000000E-01   4.000000E-01   4.000000E-01   4.000000E-01   4.000000E-01   4.000000E-01   4.000000E-01   4.000000E-01   4.000000E-01   4.000000E-01   4.000000E-01   4.000000E-01   4.000000E-01   4.000000E-01   4.000000E-01   4.000000E-01   4.000000E-01   4.000000E-01   4.000000E-01   4.000000E-01   4.000000E-01   4.000000E-01   4.000000E-01   4.000000E-01   4.000000E-01   4.000000E-01   4.000000E-01   4.000000E-01   4.000000E-01   4.000000E-01   4.000000E-01   4.000000E-01   4.000000E-01   4.000000E-01   4.000000E-01   4.000000E-01   4.000000E-01   4.000000E-01   4.000000E-01   4.000000E-01   4.000000E-01   4.000000E-01   4.000000E-01   4.000000E-01   4.000000E-01   4.000000E-01   4.000000E-01   4.000000E-01   4.000000E-01   4.000000E-01   4.000000E-01   4.000000E-01   4.000000E-01   4.000000E-01   4.000000E-01   4.000000E-01   4.000000E-01   4.000000E-01   4.000000E-01   4.000000E-01   4.000000E-01   4.000000E-01   4.000000E-01   4.000000E-01   4.000000E-01   4.000000E-01   4.000000E-01   4.000000E-01   4.000000E-01   4.000000E-01   4.000000E-01   4.000000E-01   4.000000E-01   4.000000E-01   4.000000E-01   4.000000E-01   4.000000E-01   4.000000E-01   4.000000E-01   4.000000E-01   4.000000E-01   4.000000E-01   4.000000E-01   4.000000E-01   4.000000E-01   4.000000E-01   4.000000E-01   4.000000E-01   4.000000E-01   4.000000E-01   4.000000E-01   4.000000E-01   4.000000E-01   4.000000E-01   4.000000E-01   4.000000E-01   4.000000E-01   4.000000E-01   4.000000E-01   4.000000E-01   4.000000E-01   4.000000E-01   4.000000E-01   4.000000E-01   4.000000E-01   4.000000E-01   4.000000E-01   4.000000E-01   4.000000E-01   4.000000E-01   4.000000E-01   4.000000E-01   4.000000E-01   4.000000E-01   4.000000E-01   4.000000E-01   4.000000E-01   4.000000E-01   4.000000E-01   4.000000E-01   4.000000E-01   4.000000E-01   4.000000E-01   4.000000E-01   4.000000E-01   4.000000E-01   4.000000E-01   4.000000E-01   4.000000E-01   4.000000E-01   4.000000E-01   4.000000E-01   4.000000E-01   4.000000E-01   4.000000E-01   4.000000E-01   4.000000E-01   4.000000E-01   4.000000E-01   4.000000E-01   4.000000E-01   4.000000E-01   4.000000E-01   4.000000E-01   4.000000E-01   4.000000E-01   4.000000E-01   4.000000E-01   4.000000E-01   4.000000E-01   4.000000E-01   4.000000E-01   4.000000E-01   4.000000E-01   4.000000E-01   4.000000E-01   4.000000E-01   4.000000E-01   4.000000E-01   4.000000E-01   4.000000E-01   4.000000E-01   4.000000E-01   4.000000E-01   4.000000E-01   4.000000E-01   4.000000E-01   4.000000E-01   4.000000E-01   4.000000E-01   4.000000E-01   4.000000E-01   4.000000E-01   4.000000E-01   4.000000E-01   4.000000E-01   4.000000E-01   4.000000E-01   4.000000E-01   4.000000E-01   4.000000E-01   4.000000E-01   4.000000E-01   4.000000E-01   4.000000E-01   4.000000E-01   4.000000E-01   4.000000E-01   4.000000E-01   4.000000E-01   4.000000E-01   4.000000E-01   4.000000E-01   4.000000E-01   4.000000E-01   4.000000E-01   4.000000E-01   4.000000E-01   4.000000E-01   4.000000E-01   4.000000E-01   4.000000E-01   4.000000E-01   4.000000E-01   4.000000E-01   4.000000E-01   4.000000E-01   4.000000E-01   4.000000E-01   4.000000E-01   4.000000E-01   4.000000E-01   4.000000E-01   4.000000E-01   4.000000E-01   4.000000E-01   4.000000E-01   4.000000E-01   4.000000E-01   4.000000E-01   4.000000E-01   4.000000E-01   4.000000E-01   4.000000E-01   4.000000E-01   4.000000E-01   4.000000E-01   4.000000E-01   4.000000E-01   4.000000E-01   4.000000E-01   4.000000E-01   4.000000E-01   4.000000E-01   4.000000E-01   4.000000E-01   4.000000E-01   4.000000E-01   4.000000E-01   4.000000E-01   4.000000E-01   4.000000E-01   4.000000E-01   4.000000E-01   4.000000E-01   4.000000E-01   4.000000E-01   4.000000E-01   4.000000E-01   4.000000E-01   4.000000E-01   4.000000E-01   4.000000E-01   4.000000E-01   4.000000E-01   4.000000E-01   4.000000E-01   4.000000E-01   4.000000E-01   4.000000E-01   4.000000E-01   4.000000E-01   4.000000E-01   4.000000E-01   4.000000E-01   4.000000E-01   4.000000E-01   4.000000E-01   4.000000E-01   4.000000E-01   4.000000E-01   4.000000E-01   4.000000E-01   4.000000E-01   4.000000E-01   4.000000E-01   4.000000E-01   4.000000E-01   4.000000E-01   4.000000E-01   4.000000E-01   4.000000E-01   4.000000E-01   4.000000E-01   4.000000E-01   4.000000E-01   4.000000E-01   4.000000E-01   4.000000E-01   4.000000E-01   4.000000E-01   4.000000E-01   4.000000E-01   4.000000E-01   4.000000E-01   4.000000E-01   4.000000E-01   4.000000E-01   4.000000E-01   4.000000E-01   4.000000E-01   4.000000E-01   4.000000E-01   4.000000E-01   4.000000E-01   4.000000E-01   4.000000E-01   4.000000E-01   4.000000E-01   4.000000E-01   4.000000E-01   4.000000E-01   4.000000E-01   4.000000E-01   4.000000E-01   4.000000E-01   4.000000E-01   4.000000E-01   4.000000E-01   4.000000E-01   4.000000E-01   4.000000E-01   4.000000E-01   4.000000E-01   4.000000E-01   4.000000E-01   4.000000E-01   4.000000E-01   4.000000E-01   4.000000E-01   4.000000E-01   4.000000E-01   4.000000E-01   4.000000E-01   4.000000E-01   4.000000E-01   4.000000E-01   4.000000E-01   4.000000E-01   4.000000E-01   4.000000E-01   4.000000E-01   4.000000E-01   4.000000E-01   4.000000E-01   4.000000E-01   4.000000E-01   4.000000E-01   4.000000E-01   4.000000E-01   4.000000E-01   4.000000E-01   4.000000E-01   4.000000E-01   4.000000E-01   4.000000E-01   4.000000E-01   4.000000E-01   4.000000E-01   4.000000E-01   4.000000E-01   4.000000E-01   4.000000E-01   4.000000E-01   4.000000E-01   4.000000E-01   4.000000E-01   4.000000E-01   4.000000E-01   4.000000E-01   4.000000E-01   4.000000E-01   4.000000E-01   4.000000E-01   4.000000E-01   4.000000E-01   4.000000E-01   4.000000E-01   4.000000E-01   4.000000E-01   4.000000E-01   4.000000E-01   4.000000E-01   4.000000E-01   4.000000E-01   4.000000E-01   4.000000E-01   4.000000E-01   4.000000E-01   4.000000E-01   4.000000E-01   4.000000E-01   4.000000E-01   4.000000E-01   4.000000E-01   4.000000E-01   4.000000E-01   4.000000E-01   4.000000E-01   4.000000E-01   4.000000E-01   4.000000E-01   4.000000E-01   4.000000E-01   4.000000E-01   4.000000E-01   4.000000E-01   4.000000E-01   4.000000E-01   4.000000E-01   4.000000E-01   4.000000E-01   4.000000E-01   4.000000E-01   4.000000E-01   4.000000E-01   4.000000E-01   4.000000E-01   4.000000E-01   4.000000E-01   4.000000E-01   4.000000E-01   4.000000E-01   4.000000E-01   4.000000E-01   4.000000E-01   4.000000E-01   4.000000E-01   4.000000E-01   4.000000E-01   4.000000E-01   4.000000E-01   4.000000E-01   4.000000E-01   4.000000E-01   4.000000E-01   4.000000E-01   4.000000E-01   4.000000E-01   4.000000E-01   4.000000E-01   4.000000E-01   4.000000E-01   4.000000E-01   4.000000E-01   4.000000E-01   4.000000E-01   4.000000E-01   4.000000E-01   4.000000E-01   4.000000E-01   4.000000E-01   4.000000E-01   4.000000E-01   4.000000E-01   4.000000E-01   4.000000E-01   4.000000E-01   4.000000E-01   4.000000E-01   4.000000E-01   4.000000E-01   4.000000E-01   4.000000E-01   4.000000E-01   4.000000E-01   4.000000E-01   4.000000E-01   4.000000E-01   4.000000E-01   4.000000E-01   4.000000E-01   4.000000E-01   4.000000E-01   4.000000E-01   4.000000E-01   4.000000E-01   4.000000E-01   4.000000E-01   4.000000E-01   4.000000E-01   4.000000E-01   4.000000E-01   4.000000E-01   4.000000E-01   4.000000E-01   4.000000E-01   4.000000E-01   4.000000E-01   4.000000E-01   4.000000E-01   4.000000E-01   4.000000E-01   4.000000E-01   4.000000E-01   4.000000E-01   4.000000E-01   4.000000E-01   4.000000E-01   4.000000E-01   4.000000E-01   4.000000E-01   4.000000E-01   4.000000E-01   4.000000E-01   4.000000E-01   4.000000E-01   4.000000E-01   4.000000E-01   4.000000E-01   4.000000E-01   4.000000E-01   4.000000E-01   4.000000E-01   4.000000E-01   4.000000E-01   4.000000E-01   4.000000E-01   4.000000E-01   4.000000E-01   4.000000E-01   4.000000E-01   4.000000E-01   4.000000E-01   4.000000E-01   4.000000E-01   4.000000E-01   4.000000E-01   4.000000E-01   4.000000E-01   4.000000E-01   4.000000E-01   4.000000E-01   4.000000E-01   4.000000E-01   4.000000E-01   4.000000E-01   4.000000E-01   4.000000E-01   4.000000E-01   4.000000E-01   4.000000E-01   4.000000E-01   4.000000E-01   4.000000E-01   4.000000E-01   4.000000E-01   4.000000E-01   4.000000E-01   4.000000E-01   4.000000E-01   4.000000E-01   4.000000E-01   4.000000E-01   4.000000E-01   4.000000E-01   4.000000E-01   4.000000E-01   4.000000E-01   4.000000E-01   4.000000E-01   4.000000E-01   4.000000E-01   4.000000E-01   4.000000E-01   4.000000E-01   4.000000E-01   4.000000E-01   4.000000E-01   4.000000E-01   4.000000E-01   4.000000E-01   4.000000E-01   4.000000E-01   4.000000E-01   4.000000E-01   4.000000E-01   4.000000E-01   4.000000E-01   4.000000E-01   4.000000E-01   4.000000E-01   4.000000E-01   4.000000E-01   4.000000E-01   4.000000E-01   4.000000E-01   4.000000E-01   4.000000E-01   4.000000E-01   4.000000E-01   4.000000E-01   4.000000E-01   4.000000E-01   4.000000E-01   4.000000E-01   4.000000E-01   4.000000E-01   4.000000E-01   4.000000E-01   4.000000E-01   4.000000E-01   4.000000E-01   4.000000E-01   4.000000E-01   4.000000E-01   4.000000E-01   4.000000E-01   4.000000E-01   4.000000E-01   4.000000E-01   4.000000E-01   4.000000E-01   4.000000E-01   4.000000E-01   4.000000E-01   4.000000E-01   4.000000E-01   4.000000E-01   4.000000E-01   4.000000E-01   4.000000E-01   4.000000E-01   4.000000E-01   4.000000E-01   4.000000E-01   4.000000E-01   4.000000E-01   4.000000E-01   4.000000E-01   4.000000E-01   4.000000E-01   4.000000E-01   4.000000E-01   4.000000E-01   4.000000E-01   4.000000E-01   4.000000E-01   4.000000E-01   4.000000E-01   4.000000E-01   4.000000E-01   4.000000E-01   4.000000E-01   4.000000E-01   4.000000E-01   4.000000E-01   4.000000E-01   4.000000E-01   4.000000E-01   4.000000E-01   4.000000E-01   4.000000E-01   4.000000E-01   4.000000E-01   4.000000E-01   4.000000E-01   4.000000E-01   4.000000E-01   4.000000E-01   4.000000E-01   4.000000E-01   4.000000E-01   4.000000E-01   4.000000E-01   4.000000E-01   4.000000E-01   4.000000E-01   4.000000E-01   4.000000E-01   4.000000E-01   4.000000E-01   4.000000E-01   4.000000E-01   4.000000E-01   4.000000E-01   4.000000E-01   4.000000E-01   4.000000E-01   4.000000E-01   4.000000E-01   4.000000E-01   4.000000E-01   4.000000E-01   4.000000E-01   4.000000E-01   4.000000E-01   4.000000E-01   4.000000E-01   4.000000E-01   4.000000E-01   4.000000E-01   4.000000E-01   4.000000E-01   4.000000E-01   4.000000E-01   4.000000E-01   4.000000E-01   4.000000E-01   4.000000E-01   4.000000E-01   4.000000E-01   4.000000E-01   4.000000E-01   4.000000E-01   4.000000E-01   4.000000E-01   4.000000E-01   4.000000E-01   4.000000E-01   4.000000E-01   4.000000E-01   4.000000E-01   4.000000E-01   4.000000E-01   4.000000E-01   4.000000E-01   4.000000E-01   4.000000E-01   4.000000E-01   4.000000E-01   4.000000E-01   4.000000E-01   4.000000E-01   4.000000E-01   4.000000E-01   4.000000E-01   4.000000E-01   4.000000E-01   4.000000E-01   4.000000E-01   4.000000E-01   4.000000E-01   4.000000E-01   4.000000E-01   4.000000E-01   4.000000E-01   4.000000E-01   4.000000E-01   4.000000E-01   4.000000E-01   4.000000E-01   4.000000E-01   4.000000E-01   4.000000E-01   4.000000E-01   4.000000E-01   4.000000E-01   4.000000E-01   4.000000E-01   4.000000E-01   4.000000E-01   4.000000E-01   4.000000E-01   4.000000E-01   4.000000E-01   4.000000E-01   4.000000E-01   4.000000E-01   4.000000E-01   4.000000E-01   4.000000E-01   4.000000E-01   4.000000E-01   4.000000E-01   4.000000E-01   4.000000E-01   4.000000E-01   4.000000E-01   4.000000E-01   4.000000E-01   4.000000E-01   4.000000E-01   4.000000E-01   4.000000E-01   4.000000E-01   4.000000E-01   4.000000E-01   4.000000E-01   4.000000E-01   4.000000E-01   4.000000E-01   4.000000E-01   4.000000E-01   4.000000E-01   4.000000E-01   4.000000E-01   4.000000E-01   4.000000E-01   4.000000E-01   4.000000E-01   4.000000E-01   4.000000E-01   4.000000E-01   4.000000E-01   4.000000E-01   4.000000E-01   4.000000E-01   4.000000E-01   4.000000E-01   4.000000E-01   4.000000E-01   4.000000E-01   4.000000E-01   4.000000E-01   4.000000E-01   4.000000E-01   4.000000E-01   4.000000E-01   4.000000E-01   4.000000E-01   4.000000E-01   4.000000E-01   4.000000E-01   4.000000E-01   4.000000E-01   4.000000E-01   4.000000E-01   4.000000E-01   4.000000E-01   4.000000E-01   4.000000E-01   4.000000E-01   4.000000E-01   4.000000E-01   4.000000E-01   4.000000E-01   4.000000E-01   4.000000E-01   4.000000E-01   4.000000E-01   4.000000E-01   4.000000E-01   4.000000E-01   4.000000E-01   4.000000E-01   4.000000E-01   4.000000E-01   4.000000E-01   4.000000E-01   4.000000E-01   4.000000E-01   4.000000E-01   4.000000E-01   4.000000E-01   4.000000E-01   4.000000E-01   4.000000E-01   4.000000E-01   4.000000E-01   4.000000E-01   4.000000E-01   4.000000E-01   4.000000E-01   4.000000E-01   4.000000E-01   4.000000E-01   4.000000E-01   4.000000E-01   4.000000E-01   4.000000E-01   4.000000E-01   4.000000E-01   4.000000E-01   4.000000E-01   4.000000E-01   4.000000E-01   4.000000E-01   4.000000E-01   4.000000E-01   4.000000E-01   4.000000E-01   4.000000E-01   4.000000E-01   4.000000E-01   4.000000E-01   4.000000E-01   4.000000E-01   4.000000E-01   4.000000E-01   4.000000E-01   4.000000E-01   4.000000E-01   4.000000E-01   4.000000E-01   4.000000E-01   4.000000E-01   4.000000E-01   4.000000E-01   4.000000E-01   4.000000E-01   4.000000E-01   4.000000E-01   4.000000E-01   4.000000E-01   4.000000E-01   4.000000E-01   4.000000E-01   4.000000E-01   4.000000E-01   4.000000E-01   4.000000E-01   4.000000E-01   4.000000E-01   4.000000E-01   4.000000E-01   4.000000E-01   4.000000E-01   4.000000E-01   4.000000E-01   4.000000E-01   4.000000E-01   4.000000E-01   4.000000E-01   4.000000E-01   4.000000E-01   4.000000E-01   4.000000E-01   4.000000E-01   4.000000E-01   4.000000E-01   4.000000E-01   4.000000E-01   4.000000E-01   4.000000E-01   4.000000E-01   4.000000E-01   4.000000E-01   4.000000E-01   4.000000E-01   4.000000E-01   4.000000E-01   4.000000E-01   4.000000E-01   4.000000E-01   4.000000E-01   4.000000E-01   4.000000E-01   4.000000E-01   4.000000E-01   4.000000E-01   4.000000E-01   4.000000E-01   4.000000E-01   4.000000E-01   4.000000E-01   4.000000E-01   4.000000E-01   4.000000E-01   4.000000E-01   4.000000E-01   4.000000E-01   