<?xml version="1.0"?>
<!-- Time =  6.0005029269476928E-01s -->
<VTKFile type="PolyData" version="0.1" byte_order="LittleEndian">
<PolyData>
<Piece NumberOfPoints="0000002400" NumberOfVerts="0" NumberOfLines="0" NumberOfStrips="0" NumberOfPolys="0">
<Points>
<DataArray type="Float32" Name="Position" NumberOfComponents="3" format="ascii">
  8.969893E-01   1.969450E-01   0.000000E+00   1.609440E+00   1.970443E-01   0.000000E+00   2.368219E+00   1.997042E-01   0.000000E+00   3.943788E+00   1.997129E-01   0.000000E+00   4.741938E+00   1.971596E-01   0.000000E+00   6.986015E+00   1.122435E+00   0.000000E+00   6.876233E+00   2.460577E+00   0.000000E+00   7.397004E+00   1.065778E+01   0.000000E+00   7.312740E+00   1.700712E+01   0.000000E+00   4.623771E+00   1.513280E+01   0.000000E+00   1.996678E-01   1.975044E-01   0.000000E+00   1.253160E+00   3.782847E-01   0.000000E+00   1.988575E+00   3.212753E-01   0.000000E+00   3.165530E+00   1.989258E-01   0.000000E+00   4.342463E+00   1.979578E-01   0.000000E+00   6.567725E+00   4.021707E-01   0.000000E+00   6.696427E+00   2.846153E+00   0.000000E+00   6.580382E+00   4.590294E+00   0.000000E+00   6.327871E+00   3.186047E+00   0.000000E+00   7.961305E+00   1.877110E+01   0.000000E+00   4.616533E+00   1.588664E+01   0.000000E+00   5.474481E+00   1.845333E+01   0.000000E+00   6.912678E+00   1.698862E+01   0.000000E+00   6.356987E+00   1.804842E+01   0.000000E+00   4.696436E+00   1.274693E+01   0.000000E+00   5.507543E+00   1.733517E+01   0.000000E+00   5.484402E-01   3.924491E-01   0.000000E+00   1.589905E+00   5.938057E-01   0.000000E+00   2.766767E+00   1.995220E-01   0.000000E+00   3.554851E+00   2.861908E-01   0.000000E+00   5.626892E+00   2.013646E-01   0.000000E+00   6.582013E+00   1.181033E+00   0.000000E+00   7.328743E+00   4.494308E+00   0.000000E+00   6.732615E+00   1.112025E+01   0.000000E+00   7.351423E+00   1.846149E+01   0.000000E+00   4.432285E+00   1.306443E+01   0.000000E+00   3.073763E+00   1.264728E+01   0.000000E+00   4.558679E+00   1.467019E+01   0.000000E+00   3.721043E+00   1.517753E+01   0.000000E+00   5.911294E+00   1.734259E+01   0.000000E+00   1.994326E-01   5.953469E-01   0.000000E+00   8.938895E-01   5.942401E-01   0.000000E+00   1.241951E+00   7.901253E-01   0.000000E+00   2.485555E+00   5.818726E-01   0.000000E+00   2.885002E+00   5.813853E-01   0.000000E+00   4.068083E+00   5.809279E-01   0.000000E+00   6.146028E+00   2.059303E-01   0.000000E+00   6.615179E+00   1.639331E+00   0.000000E+00   7.584356E+00   8.566744E+00   0.000000E+00   6.311630E+00   1.733564E+01   0.000000E+00   5.108628E+00   1.731736E+01   0.000000E+00   7.420076E+00   1.928278E+01   0.000000E+00   4.109062E+00   1.531415E+01   0.000000E+00   7.869591E+00   1.357074E+01   0.000000E+00   5.774048E+00   1.539055E+01   0.000000E+00   5.469388E-01   7.921831E-01   0.000000E+00   8.932248E-01   9.922218E-01   0.000000E+00   1.969374E+00   7.205020E-01   0.000000E+00   2.304764E+00   9.382408E-01   0.000000E+00   3.284370E+00   5.800879E-01   0.000000E+00   5.143376E+00   2.082982E-01   0.000000E+00   6.267188E+00   6.906039E-01   0.000000E+00   6.456216E+00   2.029861E+00   0.000000E+00   7.604015E+00   1.387516E+01   0.000000E+00   5.733095E+00   1.770333E+01   0.000000E+00   5.689431E+00   1.479989E+01   0.000000E+00   7.601213E+00   1.022310E+01   0.000000E+00   1.997649E-01   9.936582E-01   0.000000E+00   5.468251E-01   1.191451E+00   0.000000E+00   1.587785E+00   9.913277E-01   0.000000E+00   1.958391E+00   1.139666E+00   0.000000E+00   2.704661E+00   9.381816E-01   0.000000E+00   4.508295E+00   5.609462E-01   0.000000E+00   5.881411E+00   5.087767E-01   0.000000E+00   6.336329E+00   2.659267E+00   0.000000E+00   6.989693E+00   9.707953E+00   0.000000E+00   7.460948E+00   1.191562E+01   0.000000E+00   7.526169E+00   1.596165E+01   0.000000E+00   6.973284E+00   1.860849E+01   0.000000E+00   4.164585E+00   1.455944E+01   0.000000E+00   3.292094E+00   1.342251E+01   0.000000E+00   7.919625E+00   1.806341E+01   0.000000E+00   1.997046E-01   1.392259E+00   0.000000E+00   1.240416E+00   1.189540E+00   0.000000E+00   1.586057E+00   1.389558E+00   0.000000E+00   2.304532E+00   1.337973E+00   0.000000E+00   3.383296E+00   9.667085E-01   0.000000E+00   3.677531E+00   6.665086E-01   0.000000E+00   5.953051E+00   9.431807E-01   0.000000E+00   6.885355E+00   8.611617E+00   0.000000E+00   7.713266E+00   1.701735E+01   0.000000E+00   6.660780E+00   1.830860E+01   0.000000E+00   3.715882E+00   1.380072E+01   0.000000E+00   6.207860E+00   1.883113E+01   0.000000E+00   4.057366E+00   1.401265E+01   0.000000E+00   5.468372E-01   1.590579E+00   0.000000E+00   8.932009E-01   1.390895E+00   0.000000E+00   1.239773E+00   1.589061E+00   0.000000E+00   1.955899E+00   1.540234E+00   0.000000E+00   3.032830E+00   1.166730E+00   0.000000E+00   3.775919E+00   1.055362E+00   0.000000E+00   4.929763E+00   5.497062E-01   0.000000E+00   6.382210E+00   7.203557E+00   0.000000E+00   6.335836E+00   8.971068E+00   0.000000E+00   7.319467E+00   1.228978E+01   0.000000E+00   6.540525E+00   1.769373E+01   0.000000E+00   6.800121E+00   1.904112E+01   0.000000E+00   3.823616E+00   1.434432E+01   0.000000E+00   3.879616E+00   1.256600E+01   0.000000E+00   4.995446E+00   1.601499E+01   0.000000E+00   5.729175E+00   1.619259E+01   0.000000E+00   4.917543E+00   1.485364E+01   0.000000E+00   1.997678E-01   1.791035E+00   0.000000E+00   8.934945E-01   1.789909E+00   0.000000E+00   1.586046E+00   1.788154E+00   0.000000E+00   2.303441E+00   1.737808E+00   0.000000E+00   2.679837E+00   1.473146E+00   0.000000E+00   4.304155E+00   9.043284E-01   0.000000E+00   6.135663E+00   1.318624E+00   0.000000E+00   5.953777E+00   4.183082E+00   0.000000E+00   6.946813E+00   1.045328E+01   0.000000E+00   5.952718E+00   1.805263E+01   0.000000E+00   5.552836E+00   1.806026E+01   0.000000E+00   3.692482E+00   1.337961E+01   0.000000E+00   4.034284E+00   1.295752E+01   0.000000E+00   1.998118E-01   2.189967E+00   0.000000E+00   5.465416E-01   1.989780E+00   0.000000E+00   1.240324E+00   1.988410E+00   0.000000E+00   1.954880E+00   1.940106E+00   0.000000E+00   2.302195E+00   2.137440E+00   0.000000E+00   3.396532E+00   1.365641E+00   0.000000E+00   5.430393E+00   5.510144E-01   0.000000E+00   6.775218E+00   3.284962E+00   0.000000E+00   6.422958E+00   8.403899E+00   0.000000E+00   6.096444E+00   2.197166E+00   0.000000E+00   7.147145E+00   9.263183E+00   0.000000E+00   7.788691E+00   1.913332E+01   0.000000E+00   5.332011E+00   1.623427E+01   0.000000E+00   3.829351E+00   1.478660E+01   0.000000E+00   5.518848E+00   1.662652E+01   0.000000E+00   1.999640E-01   2.588858E+00   0.000000E+00   5.466281E-01   2.388990E+00   0.000000E+00   1.588450E+00   2.187316E+00   0.000000E+00   1.958107E+00   2.340868E+00   0.000000E+00   2.670308E+00   1.897211E+00   0.000000E+00   3.062763E+00   1.585069E+00   0.000000E+00   4.132397E+00   1.263841E+00   0.000000E+00   5.738336E+00   1.336272E+00   0.000000E+00   6.112877E+00   1.751166E+00   0.000000E+00   5.684831E+00   2.157439E+00   0.000000E+00   6.079457E+00   5.820725E+00   0.000000E+00   7.713900E+00   1.771326E+01   0.000000E+00   4.268831E+00   1.494804E+01   0.000000E+00   5.332788E+00   1.769808E+01   0.000000E+00   5.371113E+00   1.583630E+01   0.000000E+00   5.023311E+00   1.523956E+01   0.000000E+00   2.001448E-01   2.987922E+00   0.000000E+00   5.468869E-01   2.788132E+00   0.000000E+00   8.930506E-01   2.189109E+00   0.000000E+00   1.240042E+00   2.387505E+00   0.000000E+00   2.309565E+00   2.537125E+00   0.000000E+00   2.667106E+00   2.299600E+00   0.000000E+00   3.784837E+00   1.459227E+00   0.000000E+00   4.727509E+00   8.943934E-01   0.000000E+00   5.556050E+00   9.741306E-01   0.000000E+00   5.706378E+00   1.743543E+00   0.000000E+00   5.947258E+00   2.569963E+00   0.000000E+00   5.675885E+00   8.146156E+00   0.000000E+00   7.027096E+00   1.937284E+01   0.000000E+00   6.714780E+00   1.733472E+01   0.000000E+00   4.055893E+00   1.359136E+01   0.000000E+00   7.189716E+00   1.894923E+01   0.000000E+00   4.433716E+00   1.346421E+01   0.000000E+00   2.006234E-01   3.387253E+00   0.000000E+00   5.472717E-01   3.187412E+00   0.000000E+00   8.935949E-01   2.588451E+00   0.000000E+00   1.586843E+00   2.586370E+00   0.000000E+00   1.955709E+00   2.740584E+00   0.000000E+00   3.060626E+00   1.984438E+00   0.000000E+00   4.531523E+00   1.241915E+00   0.000000E+00   5.170182E+00   8.714774E-01   0.000000E+00   4.965958E+00   1.214692E+00   0.000000E+00   5.339925E+00   1.353172E+00   0.000000E+00   6.515848E+00   3.637354E+00   0.000000E+00   7.514761E+00   1.736421E+01   0.000000E+00   6.078157E+00   3.600067E+00   0.000000E+00   6.740475E+00   1.232918E+01   0.000000E+00   7.279116E+00   7.297255E+00   0.000000E+00   7.379953E+00   2.699727E+00   0.000000E+00   2.001252E-01   3.786676E+00   0.000000E+00   5.471538E-01   3.586723E+00   0.000000E+00   8.939860E-01   2.987919E+00   0.000000E+00   1.240756E+00   2.786923E+00   0.000000E+00   1.588421E+00   2.985576E+00   0.000000E+00   2.304052E+00   2.936922E+00   0.000000E+00   3.419506E+00   1.764422E+00   0.000000E+00   4.158545E+00   1.662021E+00   0.000000E+00   3.057700E+00   2.383916E+00   0.000000E+00   3.418547E+00   2.163948E+00   0.000000E+00   4.958797E+00   1.614134E+00   0.000000E+00   5.307751E+00   1.810738E+00   0.000000E+00   7.733489E+00   1.561970E+01   0.000000E+00   5.279708E+00   1.694875E+01   0.000000E+00   6.106963E+00   1.699024E+01   0.000000E+00   3.867096E+00   1.563111E+01   0.000000E+00   1.998848E-01   4.185998E+00   0.000000E+00   5.474113E-01   3.986070E+00   0.000000E+00   8.946083E-01   3.387315E+00   0.000000E+00   1.241392E+00   3.186646E+00   0.000000E+00   1.956882E+00   3.140962E+00   0.000000E+00   2.676722E+00   2.699397E+00   0.000000E+00   2.305932E+00   3.336792E+00   0.000000E+00   2.306078E+00   3.736719E+00   0.000000E+00   2.669499E+00   3.099436E+00   0.000000E+00   3.080139E+00   2.782943E+00  
[...]
<PointData Scalars="Diameter" Vectors="Velocity">
<DataArray type="Float32" Name="Diameter" format="ascii">
  4.000000E-01   4.000000E-01   4.000000E-01   4.000000E-01   4.000000E-01   4.000000E-01   4.000000E-01   4.000000E-01   4.000000E-01   4.000000E-01   4.000000E-01   4.000000E-01   4.000000E-01   4.000000E-01   4.000000E-01   4.000000E-01   4.000000E-01   4.000000E-01   4.000000E-01   4.000000E-01   4.000000E-01   4.000000E-01   4.000000E-01   4.000000E-01   4.000000E-01   4.000000E-01   4.000000E-01   4.000000E-01   4.000000E-01   4.000000E-01   4.000000E-01   4.000000E-01   4.000000E-01   4.000000E-01   4.000000E-01   4.000000E-01   4.000000E-01   4.000000E-01   4.000000E-01   4.000000E-01   4.000000E-01   4.000000E-01   4.000000E-01   4.000000E-01   4.000000E-01   4.000000E-01   4.000000E-01   4.000000E-01   4.000000E-01   4.000000E-01   4.000000E-01   4.000000E-01   4.000000E-01   4.000000E-01   4.000000E-01   4.000000E-01   4.000000E-01   4.000000E-01   4.000000E-01   4.000000E-01   4.000000E-01   4.000000E-01   4.000000E-01   4.000000E-01   4.000000E-01   4.000000E-01   4.000000E-01   4.000000E-01   4.000000E-01   4.000000E-01   4.000000E-01   4.000000E-01   4.000000E-01   4.000000E-01   4.000000E-01   4.000000E-01   4.000000E-01   4.000000E-01   4.000000E-01   4.000000E-01   4.000000E-01   4.000000E-01   4.000000E-01   4.000000E-01   4.000000E-01   4.000000E-01   4.000000E-01   4.000000E-01   4.000000E-01   4.000000E-01   4.000000E-01   4.000000E-01   4.000000E-01   4.000000E-01   4.000000E-01   4.000000E-01   4.000000E-01   4.000000E-01   4.000000E-01   4.000000E-01   4.000000E-01   4.000000E-01   4.000000E-01   4.000000E-01   4.000000E-01   4.000000E-01   4.000000E-01   4.000000E-01   4.000000E-01   4.000000E-01   4.000000E-01   4.000000E-01   4.000000E-01   4.000000E-01   4.000000E-01   4.000000E-01   4.000000E-01   4.000000E-01   4.000000E-01   4.000000E-01   4.000000E-01   4.000000E-01   4.000000E-01   4.000000E-01   4.000000E-01   4.000000E-01   4.000000E-01   4.000000E-01   4.000000E-01   4.000000E-01   4.000000E-01   4.000000E-01   4.000000E-01   4.000000E-01   4.000000E-01   4.000000E-01   4.000000E-01   4.000000E-01   4.000000E-01   4.000000E-01   4.000000E-01   4.000000E-01   4.000000E-01   4.000000E-01   4.000000E-01   4.000000E-01   4.000000E-01   4.000000E-01   4.000000E-01   4.000000E-01   4.000000E-01   4.000000E-01   4.000000E-01   4.000000E-01   4.000000E-01   4.000000E-01   4.000000E-01   4.000000E-01   4.000000E-01   4.000000E-01   4.000000E-01   4.000000E-01   4.000000E-01   4.000000E-01   4.000000E-01   4.000000E-01   4.000000E-01   4.000000E-01   4.000000E-01   4.000000E-01   4.000000E-01   4.000000E-01   4.000000E-01   4.000000E-01   4.000000E-01   4.000000E-01   4.000000E-01   4.000000E-01   4.000000E-01   4.000000E-01   4.000000E-01   4.000000E-01   4.000000E-01   4.000000E-01   4.000000E-01   4.000000E-01   4.000000E-01   4.000000E-01   4.000000E-01   4.000000E-01   4.000000E-01   4.000000E-01   4.000000E-01   4.000000E-01   4.000000E-01   4.000000E-01   4.000000E-01   4.000000E-01   4.000000E-01   4.000000E-01   4.000000E-01   4.000000E-01   4.000000E-01   4.000000E-01   4.000000E-01   4.000000E-01   4.000000E-01   4.000000E-01   4.000000E-01   4.000000E-01   4.000000E-01   4.000000E-01   4.000000E-01   4.000000E-01   4.000000E-01   4.000000E-01   4.000000E-01   4.000000E-01   4.000000E-01   4.000000E-01   4.000000E-01   4.000000E-01   4.000000E-01   4.000000E-01   4.000000E-01   4.000000E-01   4.000000E-01   4.000000E-01   4.000000E-01   4.000000E-01   4.000000E-01   4.000000E-01   4.000000E-01   4.000000E-01   4.000000E-01   4.000000E-01   4.000000E-01   4.000000E-01   4.000000E-01   4.000000E-01   4.000000E-01   4.000000E-01   4.000000E-01   4.000000E-01   4.000000E-01   4.000000E-01   4.000000E-01   4.000000E-01   4.000000E-01   4.000000E-01   4.000000E-01   4.000000E-01   4.000000E-01   4.000000E-01   4.000000E-01   4.000000E-01   4.000000E-01   4.000000E-01   4.000000E-01   4.000000E-01   4.000000E-01   4.000000E-01   4.000000E-01   4.000000E-01   4.000000E-01   4.000000E-01   4.000000E-01   4.000000E-01   4.000000E-01   4.000000E-01   4.000000E-01   4.000000E-01   4.000000E-01   4.000000E-01   4.000000E-01   4.000000E-01   4.000000E-01   4.000000E-01   4.000000E-01   4.000000E-01   4.000000E-01   4.000000E-01   4.000000E-01   4.000000E-01   4.000000E-01   4.000000E-01   4.000000E-01   4.000000E-01   4.000000E-01   4.000000E-01   4.000000E-01   4.000000E-01   4.000000E-01   4.000000E-01   4.000000E-01   4.000000E-01   4.000000E-01   4.000000E-01   4.000000E-01   4.000000E-01   4.000000E-01   4.000000E-01   4.000000E-01   4.000000E-01   4.000000E-01   4.000000E-01   4.000000E-01   4.000000E-01   4.000000E-01   4.000000E-01   4.000000E-01   4.000000E-01   4.000000E-01   4.000000E-01   4.000000E-01   4.000000E-01   4.000000E-01   4.000000E-01   4.000000E-01   4.000000E-01   4.000000E-01   4.000000E-01   4.000000E-01   4.000000E-01   4.000000E-01   4.000000E-01   4.000000E-01   4.000000E-01   4.000000E-01   4.000000E-01   4.000000E-01   4.000000E-01   4.000000E-01   4.000000E-01   4.000000E-01   4.000000E-01   4.000000E-01   4.000000E-01   4.000000E-01   4.000000E-01   4.000000E-01   4.000000E-01   4.000000E-01   4.000000E-01   4.000000E-01   4.000000E-01   4.000000E-01   4.000000E-01   4.000000E-01   4.000000E-01   4.000000E-01   4.000000E-01   4.000000E-01   4.000000E-01   4.000000E-01   4.000000E-01   4.000000E-01   4.000000E-01   4.000000E-01   4.000000E-01   4.000000E-01   4.000000E-01   4.000000E-01   4.000000E-01   4.000000E-01   4.000000E-01   4.000000E-01   4.000000E-01   4.000000E-01   4.000000E-01   4.000000E-01   4.000000E-01   4.000000E-01   4.000000E-01   4.000000E-01   4.000000E-01   4.000000E-01   4.000000E-01   4.000000E-01   4.000000E-01   4.000000E-01   4.000000E-01   4.000000E-01   4.000000E-01   4.000000E-01   4.000000E-01   4.000000E-01   4.000000E-01   4.000000E-01   4.000000E-01   4.000000E-01   4.000000E-01   4.000000E-01   4.000000E-01   4.000000E-01   4.000000E-01   4.000000E-01   4.000000E-01   4.000000E-01   4.000000E-01   4.000000E-01   4.000000E-01   4.000000E-01   4.000000E-01   4.000000E-01   4.000000E-01   4.000000E-01   4.000000E-01   4.000000E-01   4.000000E-01   4.000000E-01   4.000000E-01   4.000000E-01   4.000000E-01   4.000000E-01   4.000000E-01   4.000000E-01   4.000000E-01   4.000000E-01   4.000000E-01   4.000000E-01   4.000000E-01   4.000000E-01   4.000000E-01   4.000000E-01   4.000000E-01   4.000000E-01   4.000000E-01   4.000000E-01   4.000000E-01   4.000000E-01   4.000000E-01   4.000000E-01   4.000000E-01   4.000000E-01   4.000000E-01   4.000000E-01   4.000000E-01   4.000000E-01   4.000000E-01   4.000000E-01   4.000000E-01   4.000000E-01   4.000000E-01   4.000000E-01   4.000000E-01   4.000000E-01   4.000000E-01   4.000000E-01   4.000000E-01   4.000000E-01   4.000000E-01   4.000000E-01   4.000000E-01   4.000000E-01   4.000000E-01   4.000000E-01   4.000000E-01   4.000000E-01   4.000000E-01   4.000000E-01   4.000000E-01   4.000000E-01   4.000000E-01   4.000000E-01   4.000000E-01   4.000000E-01   4.000000E-01   4.000000E-01   4.000000E-01   4.000000E-01   4.000000E-01   4.000000E-01   4.000000E-01   4.000000E-01   4.000000E-01   4.000000E-01   4.000000E-01   4.000000E-01   4.000000E-01   4.000000E-01   4.000000E-01   4.000000E-01   4.000000E-01   4.000000E-01   4.000000E-01   4.000000E-01   4.000000E-01   4.000000E-01   4.000000E-01   4.000000E-01   4.000000E-01   4.000000E-01   4.000000E-01   4.000000E-01   4.000000E-01   4.000000E-01   4.000000E-01   4.000000E-01   4.000000E-01   4.000000E-01   4.000000E-01   4.000000E-01   4.000000E-01   4.000000E-01   4.000000E-01   4.000000E-01   4.000000E-01   4.000000E-01   4.000000E-01   4.000000E-01   4.000000E-01   4.000000E-01   4.000000E-01   4.000000E-01   4.000000E-01   4.000000E-01   4.000000E-01   4.000000E-01   4.000000E-01   4.000000E-01   4.000000E-01   4.000000E-01   4.000000E-01   4.000000E-01   4.000000E-01   4.000000E-01   4.000000E-01   4.000000E-01   4.000000E-01   4.000000E-01   4.000000E-01   4.000000E-01   4.000000E-01   4.000000E-01   4.000000E-01   4.000000E-01   4.000000E-01   4.000000E-01   4.000000E-01   4.000000E-01   4.000000E-01   4.000000E-01   4.000000E-01   4.000000E-01   4.000000E-01   4.000000E-01   4.000000E-01   4.000000E-01   4.000000E-01   4.000000E-01   4.000000E-01   4.000000E-01   4.000000E-01   4.000000E-01   4.000000E-01   4.000000E-01   4.000000E-01   4.000000E-01   4.000000E-01   4.000000E-01   4.000000E-01   4.000000E-01   4.000000E-01   4.000000E-01   4.000000E-01   4.000000E-01   4.000000E-01   4.000000E-01   4.000000E-01   4.000000E-01   4.000000E-01   4.000000E-01   4.000000E-01   4.000000E-01   4.000000E-01   4.000000E-01   4.000000E-01   4.000000E-01   4.000000E-01   4.000000E-01   4.000000E-01   4.000000E-01   4.000000E-01   4.000000E-01   4.000000E-01   4.000000E-01   4.000000E-01   4.000000E-01   4.000000E-01   4.000000E-01   4.000000E-01   4.000000E-01   4.000000E-01   4.000000E-01   4.000000E-01   4.000000E-01   4.000000E-01   4.000000E-01   4.000000E-01   4.000000E-01   4.000000E-01   4.000000E-01   4.000000E-01   4.000000E-01   4.000000E-01   4.000000E-01   4.000000E-01   4.000000E-01   4.000000E-01   4.000000E-01   4.000000E-01   4.000000E-01   4.000000E-01   4.000000E-01   4.000000E-01   4.000000E-01   4.000000E-01   4.000000E-01   4.000000E-01   4.000000E-01   4.000000E-01   4.000000E-01   4.000000E-01   4.000000E-01   4.000000E-01   4.000000E-01   4.000000E-01   4.000000E-01   4.000000E-01   4.000000E-01   4.000000E-01   4.000000E-01   4.000000E-01   4.000000E-01   4.000000E-01   4.000000E-01   4.000000E-01   4.000000E-01   4.000000E-01   4.000000E-01   4.000000E-01   4.000000E-01   4.000000E-01   4.000000E-01   4.000000E-01   4.000000E-01   4.000000E-01   4.000000E-01   4.000000E-01   4.000000E-01   4.000000E-01   4.000000E-01   4.000000E-01   4.000000E-01   4.000000E-01   4.000000E-01   4.000000E-01   4.000000E-01   4.000000E-01   4.000000E-01   4.000000E-01   4.000000E-01   4.000000E-01   4.000000E-01   4.000000E-01   4.000000E-01   4.000000E-01   4.000000E-01   4.000000E-01   4.000000E-01   4.000000E-01   4.000000E-01   4.000000E-01   4.000000E-01   4.000000E-01   4.000000E-01   4.000000E-01   4.000000E-01   4.000000E-01   4.000000E-01   4.000000E-01   4.000000E-01   4.000000E-01   4.000000E-01   4.000000E-01   4.000000E-01   4.000000E-01   4.000000E-01   4.000000E-01   4.000000E-01   4.000000E-01   4.000000E-01   4.000000E-01   4.000000E-01   4.000000E-01   4.000000E-01   4.000000E-01   4.000000E-01   4.000000E-01   4.000000E-01   4.000000E-01   4.000000E-01   4.000000E-01   4.000000E-01   4.000000E-01   4.000000E-01   4.000000E-01   4.000000E-01   4.000000E-01   4.000000E-01   4.000000E-01   4.000000E-01   4.000000E-01   4.000000E-01   4.000000E-01   4.000000E-01   4.000000E-01   4.000000E-01   4.000000E-01   4.000000E-01   4.000000E-01   4.000000E-01   4.000000E-01   4.000000E-01   4.000000E-01   4.000000E-01   4.000000E-01   4.000000E-01   4.000000E-01   4.000000E-01   4.000000E-01   4.000000E-01   4.000000E-01   4.000000E-01   4.000000E-01   4.000000E-01   4.000000E-01   4.000000E-01   4.000000E-01   4.000000E-01   4.000000E-01   4.000000E-01   4.000000E-01   4.000000E-01   4.000000E-01   4.000000E-01   4.000000E-01   4.000000E-01   4.000000E-01   4.000000E-01   4.000000E-01   4.000000E-01   4.000000E-01   4.000000E-01   4.000000E-01   4.000000E-01   4.000000E-01   4.000000E-01   4.000000E-01   4.000000E-01   4.000000E-01   4.000000E-01   4.000000E-01   4.000000E-01   4.000000E-01   4.000000E-01   4.000000E-01   4.000000E-01   4.000000E-01   4.000000E-01   4.000000E-01   4.000000E-01   4.000000E-01   4.000000E-01   4.000000E-01   4.000000E-01   4.000000E-01   4.000000E-01   4.000000E-01   4.000000E-01   4.000000E-01   4.000000E-01   4.000000E-01   4.000000E-01   4.000000E-01   4.000000E-01   4.000000E-01   4.000000E-01   4.000000E-01   4.000000E-01   4.000000E-01   4.000000E-01   4.000000E-01   4.000000E-01   4.000000E-01   4.000000E-01   4.000000E-01   4.000000E-01   4.000000E-01   4.000000E-01   4.000000E-01   4.000000E-01   4.000000E-01   4.000000E-01   4.000000E-01   4.000000E-01   4.000000E-01   4.000000E-01   4.000000E-01   4.000000E-01   4.000000E-01   4.000000E-01   4.000000E-01   4.000000E-01   4.000000E-01   4.000000E-01   4.000000E-01   4.000000E-01   4.000000E-01   4.000000E-01   4.000000E-01   4.000000E-01   4.000000E-01   4.000000E-01   4.000000E-01   4.000000E-01   4.000000E-01   4.000000E-01   4.000000E-01   4.000000E-01   4.000000E-01   4.000000E-01   4.000000E-01   4.000000E-01   4.000000E-01   4.000000E-01   4.000000E-01   4.000000E-01   4.000000E-01   4.000000E-01   4.000000E-01   4.000000E-01   4.000000E-01   4.000000E-01   4.000000E-01   4.000000E-01   4.000000E-01   4.000000E-01   4.000000E-01   4.000000E-01   4.000000E-01   4.000000E-01   4.000000E-01   4.000000E-01   4.000000E-01   4.000000E-01   4.000000E-01   4.000000E-01   4.000000E-01   4.000000E-01   4.000000E-01   4.000000E-01   4.000000E-01   4.000000E-01   4.000000E-01   4.000000E-01   4.000000E-01   4.000000E-01   4.000000E-01   4.000000E-01   4.000000E-01   4.000000E-01   4.000000E-01   4.000000E-01   4.000000E-01   4.000000E-01   4.000000E-01   4.000000E-01   4.000000E-01   4.000000E-01   4.000000E-01   4.000000E-01   4.000000E-01   4.000000E-01   4.000000E-01   4.000000E-01   4.000000E-01   4.000000E-01   4.000000E-01   4.000000E-01   4.000000E-01   4.000000E-01   4.000000E-01   4.000000E-01   4.000000E-01   4.000000E-01   4.000000E-01   4.000000E-01   4.000000E-01   4.000000E-01   4.000000E-01   4.000000E-01   4.000000E-01   4.000000E-01   4.000000E-01   4.000000E-01   4.000000E-01   4.000000E-01   4.000000E-01   4.000000E-01   4.000000E-01   4.000000E-01   4.000000E-01   4.000000E-01   4.000000E-01   4.000000E-01   4.000000E-01   4.000000E-01   4.000000E-01   4.000000E-01   4.000000E-01   4.000000E-01   4.000000E-01   4.000000E-01   4.000000E-01   4.000000E-01   4.000000E-01   4.000000E-01   4.000000E-01   4.000000E-01   4.000000E-01   4.000000E-01   4.000000E-01   4.000000E-01   4.000000E-01   4.000000E-01   4.000000E-01   4.000000E-01   4.000000E-01   4.000000E-01   4.000000E-01   4.000000E-01   4.000000E-01   4.000000E-01   4.000000E-01   4.000000E-01   4.000000E-01   4.000000E-01   4.000000E-01   4.000000E-01   4.000000E-01   4.000000E-01   4.000000E-01   4.000000E-01   4.000000E-01   4.000000E-01   4.000000E-01   4.000000E-01   4.000000E-01   4.000000E-01   4.000000E-01   4.000000E-01   4.000000E-01   4.000000E-01   4.000000E-01   4.000000E-01   4.000000E-01   4.000000E-01   4.000000E-01   4.000000E-01   4.000000E-01   4.000000E-01   4.000000E-01   4.000000E-01   4.000000E-01   4.000000E-01   4.000000E-01   4.000000E-01   4.000000E-01   4.000000E-01   4.000000E-01   4.000000E-01   4.000000E-01   4.000000E-01   4.000000E-01   4.000000E-01   4.000000E-01   4.000000E-01   4.000000E-01   4.000000E-01   4.000000E-01   4.000000E-01   4.000000E-01   4.000000E-01   4.000000E-01   4.000000E-01   4.000000E-01   4.000000E-01   4.000000E-01   4.000000E-01   4.000000E-01   4.000000E-01   4.000000E-01   4.000000E-01   4.000000E-01   4.000000E-01   4.000000E-01   4.000000E-01   4.000000E-01   4.000000E-01   4.000000E-01   4.000000E-01   4.000000E-01   4.000000E-01   4.000000E-01   4.000000E-01   4.000000E-01   4.000000E-01   4.000000E-01   4.000000E-01   4.000000E-01   4.000000E-01   4.000000E-01   4.000000E-01   4.000000E-01   4.000000E-01   4.000000E-01   4.000000E-01   4.000000E-01   4.000000E-01   4.000000E-01   4.000000E-01   4.000000E-01   4.000000E-01   4.000000E-01   4.000000E-01   4.000000E-01   4.000000E-01   4.000000E-01   4.000000E-01   4.000000E-01   4.000000E-01   4.000000E-01   4.000000E-01   4.000000E-01   4.000000E-01   4.000000E-01   4.000000E-01   4.000000E-01   4.000000E-01   4.000000E-01   4.000000E-01   4.000000E-01   4.000000E-01   4.000000E-01   4.000000E-01   4.000000E-01   4.000000E-01   4.000000E-01   4.000000E-01   4.000000E-01   4.000000E-01   4.000000E-01   4.000000E-01   4.000000E-01   4.000000E-01   4.000000E-01   4.000000E-01   4.000000E-01   4.000000E-01   4.000000E-01   4.000000E-01   4.000000E-01   4.000000E-01   4.000000E-01   4.000000E-01   4.000000E-01   4.000000E-01   4.000000E-01   4.000000E-01   4.000000E-01   4.000000E-01   4.000000E-01   4.000000E-01   4.000000E-01   4.000000E-01   4.000000E-01   4.000000E-01   4.000000E-01   4.000000E-01   4.000000E-01   4.000000E-01   4.000000E-01   4.000000E-01   4.000000E-01   4.000000E-01   4.000000E-01   4.000000E-01   4.000000E-01   4.000000E-01   4.000000E-01   4.000000E-01   4.000000E-01   4.000000E-01   4.000000E-01   4.000000E-01   4.000000E-01   4.000000E-01   4.000000E-01   4.000000E-01   4.000000E-01   4.000000E-01   4.000000E-01   4.000000E-01   4.000000E-01   4.000000E-01   4.000000E-01   4.000000E-01   4.000000E-01   4.000000E-01   4.000000E-01   4.000000E-01   4.000000E-01   4.000000E-01   4.000000E-01   4.000000E-01   4.000000E-01   4.000000E-01   4.000000E-01   4.000000E-01   4.000000E-01   4.000000E-01   4.000000E-01   4.000000E-01   4.000000E-01   4.000000E-01   4.000000E-01   4.000000E-01   4.000000E-01   4.000000E-01   4.000000E-01   4.000000E-01   4.000000E-01   4.000000E-01   4.000000E-01   4.000000E-01   4.000000E-01   4.000000E-01   4.000000E-01   4.000000E-01   4.000000E-01   4.000000E-01   4.000000E-01   4.000000E-01   4.000000E-01   4.000000E-01   4.000000E-01   4.000000E-01   4.000000E-01   4.000000E-01   4.000000E-01   4.000000E-01   4.000000E-01   4.000000E-01   4.000000E-01   4.000000E-01   4.000000E-01   4.000000E-01   4.000000E-01   4.000000E-01   4.000000E-01   4.000000E-01   4.000000E-01   4.000000E-01   4.000000E-01   4.000000E-01   4.000000E-01   4.000000E-01   4.000000E-01   4.000000E-01   4.000000E-01   4.000000E-01   4.000000E-01   4.000000E-01   4.000000E-01   4.000000E-01   4.000000E-01   4.000000E-01   4.000000E-01   4.000000E-01   4.000000E-01   4.000000E-01   4.000000E-01   4.000000E-01   4.000000E-01   4.000000E-01   4.000000E-01   4.000000E-01   4.000000E-01   4.000000E-01   4.000000E-01   4.000000E-01   4.000000E-01   4.000000E-01   4.000000E-01   4.000000E-01   4.000000E-01   4.000000E-01   4.000000E-01   4.000000E-01   4.000000E-01   4.000000E-01   4.000000E-01   4.000000E-01   4.000000E-01   4.000000E-01   4.000000E-01   4.000000E-01   4.000000E-01   4.000000E-01   4.000000E-01   4.000000E-01   4.000000E-01   4.000000E-01   4.000000E-01   4.000000E-01   4.000000E-01   4.000000E-01   4.000000E-01   4.000000E-01   4.000000E-01   4.000000E-01   4.000000E-01   4.000000E-01   4.000000E-01   4.000000E-01   4.000000E-01   4.000000E-01   4.000000E-01   4.000000E-01   4.000000E-01   4.000000E-01   4.000000E-01   4.000000E-01   4.000000E-01   4.000000E-01   4.000000E-01   4.000000E-01   4.000000E-01   4.000000E-01   4.000000E-01   4.000000E-01   4.000000E-01   4.000000E-01   4.000000E-01   4.000000E-01   4.000000E-01   4.000000E-01   4.000000E-01   4.000000E-01   4.000000E-01   4.000000E-01   4.000000E-01   4.000000E-01   4.000000E-01   4.000000E-01   4.000000E-01   4.000000E-01   4.000000E-01   4.000000E-01   4.000000E-01   4.000000E-01   4.000000E-01   4.000000E-01   4.000000E-01   4.000000E-01   4.000000E-01   4.000000E-01   4.000000E-01   4.000000E-01   4.000000E-01   4.000000E-01   4.000000E-01   4.000000E-01   4.000000E-01   4.000000E-01   4.000000E-01   4.000000E-01   4.000000E-01   4.000000E-01   4.000000E-01   4.000000E-01   4.000000E-01   4.000000E-01   4.000000E-01   4.000000E-01   4.000000E-01   4.000000E-01   4.000000E-01   4.000000E-01   4.000000E-01   4.000000E-01   4.000000E-01   4.000000E-01   4.000000E-01   4.000000E-01   4.000000E-01   4.000000E-01   4.000000E-01   4.000000E-01   4.000000E-01   4.000000E-01   4.000000E-01   4.000000E-01   4.000000E-01   4.000000E-01   4.000000E-01   4.000000E-01   4.000000E-01   4.000000E-01   4.000000E-01   4.000000E-01   4.000000E-01   4.000000E-01   4.000000E-01   