<?xml version="1.0"?>
<!-- Time =  8.0025029269476999E-01s -->
<VTKFile type="PolyData" version="0.1" byte_order="LittleEndian">
<PolyData>
<Piece NumberOfPoints="0000002400" NumberOfVerts="0" NumberOfLines="0" NumberOfStrips="0" NumberOfPolys="0">
<Points>
<DataArray type="Float32" Name="Position" NumberOfComponents="3" format="ascii">
  8.984147E-01   1.972585E-01   0.000000E+00   1.675034E+00   1.996383E-01   0.000000E+00   2.474262E+00   1.993270E-01   0.000000E+00   5.459766E+00   1.996187E-01   0.000000E+00   6.817356E+00   2.515819E+00   0.000000E+00   6.455666E+00   1.574863E+01   0.000000E+00   7.846738E+00   1.155999E+01   0.000000E+00   7.335323E+00   1.893743E+01   0.000000E+00   7.792657E+00   2.642790E+01   0.000000E+00   7.576262E+00   2.676741E+01   0.000000E+00   6.735891E+00   2.461185E+01   0.000000E+00   7.778342E+00   1.486081E+01   0.000000E+00   4.038229E+00   1.960954E+01   0.000000E+00   7.362412E+00   2.124395E+01   0.000000E+00   1.998259E-01   1.975848E-01   0.000000E+00   1.286464E+00   2.925223E-01   0.000000E+00   2.074651E+00   1.987738E-01   0.000000E+00   3.460188E+00   1.996083E-01   0.000000E+00   5.862043E+00   2.002369E-01   0.000000E+00   6.885266E+00   1.378615E+01   0.000000E+00   7.448771E+00   2.622242E+01   0.000000E+00   4.080586E+00   2.144136E+01   0.000000E+00   7.380268E+00   2.196648E+01   0.000000E+00   4.811571E+00   2.541904E+01   0.000000E+00   6.188026E+00   2.421366E+01   0.000000E+00   5.907054E+00   2.527906E+01   0.000000E+00   3.362208E+00   1.422566E+01   0.000000E+00   5.129467E+00   2.438268E+01   0.000000E+00   5.491904E-01   3.919307E-01   0.000000E+00   1.764982E+00   5.893170E-01   0.000000E+00   3.060472E+00   1.974751E-01   0.000000E+00   4.260051E+00   1.997591E-01   0.000000E+00   7.119105E+00   8.940059E+00   0.000000E+00   6.933558E+00   1.775854E+01   0.000000E+00   4.539519E+00   1.654507E+01   0.000000E+00   6.685646E+00   2.599966E+01   0.000000E+00   3.181102E+00   1.386401E+01   0.000000E+00   3.745090E+00   1.095602E+01   0.000000E+00   3.650786E+00   1.872157E+01   0.000000E+00   7.901018E+00   2.700315E+01   0.000000E+00   3.218840E+00   1.852109E+01   0.000000E+00   5.532892E+00   2.447468E+01   0.000000E+00   1.994364E-01   5.953411E-01   0.000000E+00   8.947556E-01   5.947876E-01   0.000000E+00   1.282370E+00   6.923137E-01   0.000000E+00   2.769047E+00   4.686016E-01   0.000000E+00   3.257678E+00   5.441791E-01   0.000000E+00   5.661994E+00   5.461954E-01   0.000000E+00   7.893488E+00   9.825567E+00   0.000000E+00   7.208216E+00   2.233812E+01   0.000000E+00   5.934932E+00   2.454552E+01   0.000000E+00   4.582141E+00   2.344120E+01   0.000000E+00   6.851282E+00   2.673753E+01   0.000000E+00   3.412553E+00   1.948043E+01   0.000000E+00   7.176894E+00   2.081702E+01   0.000000E+00   4.640001E+00   2.115966E+01   0.000000E+00   5.471547E-01   7.918029E-01   0.000000E+00   8.927022E-01   9.927064E-01   0.000000E+00   2.169399E+00   5.859434E-01   0.000000E+00   2.519178E+00   7.785629E-01   0.000000E+00   3.860075E+00   1.995873E-01   0.000000E+00   6.211035E+00   6.412734E+00   0.000000E+00   7.736693E+00   1.346283E+01   0.000000E+00   6.756446E+00   2.066764E+01   0.000000E+00   5.324948E+00   2.481492E+01   0.000000E+00   4.861155E+00   2.080318E+01   0.000000E+00   7.819348E+00   1.047711E+01   0.000000E+00   1.994083E-01   9.934084E-01   0.000000E+00   5.462073E-01   1.191412E+00   0.000000E+00   1.574300E+00   9.652995E-01   0.000000E+00   1.972644E+00   9.328273E-01   0.000000E+00   2.965086E+00   8.164157E-01   0.000000E+00   6.411383E+00   2.698156E-01   0.000000E+00   7.508450E+00   9.142213E+00   0.000000E+00   7.579243E+00   9.578841E+00   0.000000E+00   4.848340E+00   1.625039E+01   0.000000E+00   6.695114E+00   2.317371E+01   0.000000E+00   6.285613E+00   2.601291E+01   0.000000E+00   3.278108E+00   1.793601E+01   0.000000E+00   7.480639E+00   7.206379E+00   0.000000E+00   3.139615E+00   1.309262E+01   0.000000E+00   7.413807E+00   2.572838E+01   0.000000E+00   1.995414E-01   1.391743E+00   0.000000E+00   1.241376E+00   1.186967E+00   0.000000E+00   1.587331E+00   1.386397E+00   0.000000E+00   2.325337E+00   1.126561E+00   0.000000E+00   4.659521E+00   2.175103E-01   0.000000E+00   5.058856E+00   1.993923E-01   0.000000E+00   7.401473E+00   1.059076E+01   0.000000E+00   4.766116E+00   1.438123E+01   0.000000E+00   7.667944E+00   2.026497E+01   0.000000E+00   7.135801E+00   2.463564E+01   0.000000E+00   7.903620E+00   2.560717E+01   0.000000E+00   6.090817E+00   2.565969E+01   0.000000E+00   2.872085E+00   1.475654E+01   0.000000E+00   5.436364E+00   2.592433E+01   0.000000E+00   3.207798E+00   1.506502E+01   0.000000E+00   5.460453E-01   1.590487E+00   0.000000E+00   8.927060E-01   1.391200E+00   0.000000E+00   1.241402E+00   1.586932E+00   0.000000E+00   1.982796E+00   1.331613E+00   0.000000E+00   3.657620E+00   5.472742E-01   0.000000E+00   5.257587E+00   5.456073E-01   0.000000E+00   6.298477E+00   2.804511E+00   0.000000E+00   6.432791E+00   1.366073E+01   0.000000E+00   5.135942E+00   1.413316E+01   0.000000E+00   6.733106E+00   1.877743E+01   0.000000E+00   6.118903E+00   2.493772E+01   0.000000E+00   6.099943E+00   2.637765E+01   0.000000E+00   3.053214E+00   1.625519E+01   0.000000E+00   4.468153E+00   1.188380E+01   0.000000E+00   4.296550E+00   2.189124E+01   0.000000E+00   5.088244E+00   2.245723E+01   0.000000E+00   3.810585E+00   1.919957E+01   0.000000E+00   1.995232E-01   1.790331E+00   0.000000E+00   8.924087E-01   1.789870E+00   0.000000E+00   1.588394E+00   1.786363E+00   0.000000E+00   2.332890E+00   1.525746E+00   0.000000E+00   2.725171E+00   1.136101E+00   0.000000E+00   6.091640E+00   5.286391E-01   0.000000E+00   7.143478E+00   9.468169E+00   0.000000E+00   6.330462E+00   7.395265E+00   0.000000E+00   5.388214E+00   1.704414E+01   0.000000E+00   5.509788E+00   2.522620E+01   0.000000E+00   5.116114E+00   2.515594E+01   0.000000E+00   2.950224E+00   1.436089E+01   0.000000E+00   3.522759E+00   1.297970E+01   0.000000E+00   7.739709E+00   2.383231E+01   0.000000E+00   7.758809E+00   2.497686E+01   0.000000E+00   1.993816E-01   2.189068E+00   0.000000E+00   5.459451E-01   1.989489E+00   0.000000E+00   1.240004E+00   1.986906E+00   0.000000E+00   1.989720E+00   1.730319E+00   0.000000E+00   2.340953E+00   1.925436E+00   0.000000E+00   4.057498E+00   5.473039E-01   0.000000E+00   7.258478E+00   7.727252E+00   0.000000E+00   5.738562E+00   1.334728E+01   0.000000E+00   5.850710E+00   3.077304E+00   0.000000E+00   7.451765E+00   1.847582E+01   0.000000E+00   7.229727E+00   2.656312E+01   0.000000E+00   4.694588E+00   2.203003E+01   0.000000E+00   3.071671E+00   1.752768E+01   0.000000E+00   5.113871E+00   2.291672E+01   0.000000E+00   1.991598E-01   2.588085E+00   0.000000E+00   5.456539E-01   2.388562E+00   0.000000E+00   1.585954E+00   2.186935E+00   0.000000E+00   1.981377E+00   2.128972E+00   0.000000E+00   2.732714E+00   1.536105E+00   0.000000E+00   3.454324E+00   8.913886E-01   0.000000E+00   5.459365E+00   8.903353E-01   0.000000E+00   7.615910E+00   1.012077E+01   0.000000E+00   5.835744E+00   6.601335E+00   0.000000E+00   5.834404E+00   5.296909E+00   0.000000E+00   7.170801E+00   2.535949E+01   0.000000E+00   3.379954E+00   1.904126E+01   0.000000E+00   4.932851E+00   2.473554E+01   0.000000E+00   4.485469E+00   2.153402E+01   0.000000E+00   7.425148E+00   1.399076E+01   0.000000E+00   4.104602E+00   2.012044E+01   0.000000E+00   1.988777E-01   2.987446E+00   0.000000E+00   5.449857E-01   2.787837E+00   0.000000E+00   8.924092E-01   2.188884E+00   0.000000E+00   1.239518E+00   2.387026E+00   0.000000E+00   2.329746E+00   2.324846E+00   0.000000E+00   2.985951E+00   1.845374E+00   0.000000E+00   4.858394E+00   5.661423E-01   0.000000E+00   6.076983E+00   2.174054E+00   0.000000E+00   6.288952E+00   7.963759E+00   0.000000E+00   6.774242E+00   8.707240E+00   0.000000E+00   6.774417E+00   9.639505E+00   0.000000E+00   6.734288E+00   1.235840E+01   0.000000E+00   6.365440E+00   2.680545E+01   0.000000E+00   6.333965E+00   2.459849E+01   0.000000E+00   3.277152E+00   1.461784E+01   0.000000E+00   6.503109E+00   2.642448E+01   0.000000E+00   3.584171E+00   1.489907E+01   0.000000E+00   1.988489E-01   3.387070E+00   0.000000E+00   5.446988E-01   3.187453E+00   0.000000E+00   8.918464E-01   2.588191E+00   0.000000E+00   1.585560E+00   2.586907E+00   0.000000E+00   1.980695E+00   2.527701E+00   0.000000E+00   3.161989E+00   1.164052E+00   0.000000E+00   6.307591E+00   8.681220E-01   0.000000E+00   6.813015E+00   7.255352E+00   0.000000E+00   6.333323E+00   3.282915E+00   0.000000E+00   6.245738E+00   6.914758E+00   0.000000E+00   7.214878E+00   1.475779E+01   0.000000E+00   6.933618E+00   2.498059E+01   0.000000E+00   5.108180E+00   1.817903E+01   0.000000E+00   6.287495E+00   1.786981E+01   0.000000E+00   1.987348E-01   3.786869E+00   0.000000E+00   5.446073E-01   3.587179E+00   0.000000E+00   8.907353E-01   2.987715E+00   0.000000E+00   1.238451E+00   2.787122E+00   0.000000E+00   1.583990E+00   2.987092E+00   0.000000E+00   2.328436E+00   2.724319E+00   0.000000E+00   3.854196E+00   8.956581E-01   0.000000E+00   5.053846E+00   9.179621E-01   0.000000E+00   3.257184E+00   1.551907E+00   0.000000E+00   3.649752E+00   1.239373E+00   0.000000E+00   6.184720E+00   3.753868E+00   0.000000E+00   5.894525E+00   4.282093E+00   0.000000E+00   7.142596E+00   2.278089E+01   0.000000E+00   6.722443E+00   2.277142E+01   0.000000E+00   4.950152E+00   2.328751E+01   0.000000E+00   5.390124E+00   2.407949E+01   0.000000E+00   3.011130E+00   1.886590E+01   0.000000E+00   1.988651E-01   4.186837E+00   0.000000E+00   5.446295E-01   3.986911E+00   0.000000E+00   8.906717E-01   3.387289E+00   0.000000E+00   1.236971E+00   3.187064E+00   0.000000E+00   1.978091E+00   2.926409E+00   0.000000E+00   2.692083E+00   2.116977E+00   0.000000E+00   2.323972E+00   3.123710E+00   0.000000E+00   2.324932E+00   3.522957E+00  
[...]
<PointData Scalars="Diameter" Vectors="Velocity">
<DataArray type="Float32" Name="Diameter" format="ascii">
  4.000000E-01   4.000000E-01   4.000000E-01   4.000000E-01   4.000000E-01   4.000000E-01   4.000000E-01   4.000000E-01   4.000000E-01   4.000000E-01   4.000000E-01   4.000000E-01   4.000000E-01   4.000000E-01   4.000000E-01   4.000000E-01   4.000000E-01   4.000000E-01   4.000000E-01   4.000000E-01   4.000000E-01   4.000000E-01   4.000000E-01   4.000000E-01   4.000000E-01   4.000000E-01   4.000000E-01   4.000000E-01   4.000000E-01   4.000000E-01   4.000000E-01   4.000000E-01   4.000000E-01   4.000000E-01   4.000000E-01   4.000000E-01   4.000000E-01   4.000000E-01   4.000000E-01   4.000000E-01   4.000000E-01   4.000000E-01   4.000000E-01   4.000000E-01   4.000000E-01   4.000000E-01   4.000000E-01   4.000000E-01   4.000000E-01   4.000000E-01   4.000000E-01   4.000000E-01   4.000000E-01   4.000000E-01   4.000000E-01   4.000000E-01   4.000000E-01   4.000000E-01   4.000000E-01   4.000000E-01   4.000000E-01   4.000000E-01   4.000000E-01   4.000000E-01   4.000000E-01   4.000000E-01   4.000000E-01   4.000000E-01   4.000000E-01   4.000000E-01   4.000000E-01   4.000000E-01   4.000000E-01   4.000000E-01   4.000000E-01   4.000000E-01   4.000000E-01   4.000000E-01   4.000000E-01   4.000000E-01   4.000000E-01   4.000000E-01   4.000000E-01   4.000000E-01   4.000000E-01   4.000000E-01   4.000000E-01   4.000000E-01   4.000000E-01   4.000000E-01   4.000000E-01   4.000000E-01   4.000000E-01   4.000000E-01   4.000000E-01   4.000000E-01   4.000000E-01   4.000000E-01   4.000000E-01   4.000000E-01   4.000000E-01   4.000000E-01   4.000000E-01   4.000000E-01   4.000000E-01   4.000000E-01   4.000000E-01   4.000000E-01   4.000000E-01   4.000000E-01   4.000000E-01   4.000000E-01   4.000000E-01   4.000000E-01   4.000000E-01   4.000000E-01   4.000000E-01   4.000000E-01   4.000000E-01   4.000000E-01   4.000000E-01   4.000000E-01   4.000000E-01   4.000000E-01   4.000000E-01   4.000000E-01   4.000000E-01   4.000000E-01   4.000000E-01   4.000000E-01   4.000000E-01   4.000000E-01   4.000000E-01   4.000000E-01   4.000000E-01   4.000000E-01   4.000000E-01   4.000000E-01   4.000000E-01   4.000000E-01   4.000000E-01   4.000000E-01   4.000000E-01   4.000000E-01   4.000000E-01   4.000000E-01   4.000000E-01   4.000000E-01   4.000000E-01   4.000000E-01   4.000000E-01   4.000000E-01   4.000000E-01   4.000000E-01   4.000000E-01   4.000000E-01   4.000000E-01   4.000000E-01   4.000000E-01   4.000000E-01   4.000000E-01   4.000000E-01   4.000000E-01   4.000000E-01   4.000000E-01   4.000000E-01   4.000000E-01   4.000000E-01   4.000000E-01   4.000000E-01   4.000000E-01   4.000000E-01   4.000000E-01   4.000000E-01   4.000000E-01   4.000000E-01   4.000000E-01   4.000000E-01   4.000000E-01   4.000000E-01   4.000000E-01   4.000000E-01   4.000000E-01   4.000000E-01   4.000000E-01   4.000000E-01   4.000000E-01   4.000000E-01   4.000000E-01   4.000000E-01   4.000000E-01   4.000000E-01   4.000000E-01   4.000000E-01   4.000000E-01   4.000000E-01   4.000000E-01   4.000000E-01   4.000000E-01   4.000000E-01   4.000000E-01   4.000000E-01   4.000000E-01   4.000000E-01   4.000000E-01   4.000000E-01   4.000000E-01   4.000000E-01   4.000000E-01   4.000000E-01   4.000000E-01   4.000000E-01   4.000000E-01   4.000000E-01   4.000000E-01   4.000000E-01   4.000000E-01   4.000000E-01   4.000000E-01   4.000000E-01   4.000000E-01   4.000000E-01   4.000000E-01   4.000000E-01   4.000000E-01   4.000000E-01   4.000000E-01   4.000000E-01   4.000000E-01   4.000000E-01   4.000000E-01   4.000000E-01   4.000000E-01   4.000000E-01   4.000000E-01   4.000000E-01   4.000000E-01   4.000000E-01   4.000000E-01   4.000000E-01   4.000000E-01   4.000000E-01   4.000000E-01   4.000000E-01   4.000000E-01   4.000000E-01   4.000000E-01   4.000000E-01   4.000000E-01   4.000000E-01   4.000000E-01   4.000000E-01   4.000000E-01   4.000000E-01   4.000000E-01   4.000000E-01   4.000000E-01   4.000000E-01   4.000000E-01   4.000000E-01   4.000000E-01   4.000000E-01   4.000000E-01   4.000000E-01   4.000000E-01   4.000000E-01   4.000000E-01   4.000000E-01   4.000000E-01   4.000000E-01   4.000000E-01   4.000000E-01   4.000000E-01   4.000000E-01   4.000000E-01   4.000000E-01   4.000000E-01   4.000000E-01   4.000000E-01   4.000000E-01   4.000000E-01   4.000000E-01   4.000000E-01   4.000000E-01   4.000000E-01   4.000000E-01   4.000000E-01   4.000000E-01   4.000000E-01   4.000000E-01   4.000000E-01   4.000000E-01   4.000000E-01   4.000000E-01   4.000000E-01   4.000000E-01   4.000000E-01   4.000000E-01   4.000000E-01   4.000000E-01   4.000000E-01   4.000000E-01   4.000000E-01   4.000000E-01   4.000000E-01   4.000000E-01   4.000000E-01   4.000000E-01   4.000000E-01   4.000000E-01   4.000000E-01   4.000000E-01   4.000000E-01   4.000000E-01   4.000000E-01   4.000000E-01   4.000000E-01   4.000000E-01   4.000000E-01   4.000000E-01   4.000000E-01   4.000000E-01   4.000000E-01   4.000000E-01   4.000000E-01   4.000000E-01   4.000000E-01   4.000000E-01   4.000000E-01   4.000000E-01   4.000000E-01   4.000000E-01   4.000000E-01   4.000000E-01   4.000000E-01   4.000000E-01   4.000000E-01   4.000000E-01   4.000000E-01   4.000000E-01   4.000000E-01   4.000000E-01   4.000000E-01   4.000000E-01   4.000000E-01   4.000000E-01   4.000000E-01   4.000000E-01   4.000000E-01   4.000000E-01   4.000000E-01   4.000000E-01   4.000000E-01   4.000000E-01   4.000000E-01   4.000000E-01   4.000000E-01   4.000000E-01   4.000000E-01   4.000000E-01   4.000000E-01   4.000000E-01   4.000000E-01   4.000000E-01   4.000000E-01   4.000000E-01   4.000000E-01   4.000000E-01   4.000000E-01   4.000000E-01   4.000000E-01   4.000000E-01   4.000000E-01   4.000000E-01   4.000000E-01   4.000000E-01   4.000000E-01   4.000000E-01   4.000000E-01   4.000000E-01   4.000000E-01   4.000000E-01   4.000000E-01   4.000000E-01   4.000000E-01   4.000000E-01   4.000000E-01   4.000000E-01   4.000000E-01   4.000000E-01   4.000000E-01   4.000000E-01   4.000000E-01   4.000000E-01   4.000000E-01   4.000000E-01   4.000000E-01   4.000000E-01   4.000000E-01   4.000000E-01   4.000000E-01   4.000000E-01   4.000000E-01   4.000000E-01   4.000000E-01   4.000000E-01   4.000000E-01   4.000000E-01   4.000000E-01   4.000000E-01   4.000000E-01   4.000000E-01   4.000000E-01   4.000000E-01   4.000000E-01   4.000000E-01   4.000000E-01   4.000000E-01   4.000000E-01   4.000000E-01   4.000000E-01   4.000000E-01   4.000000E-01   4.000000E-01   4.000000E-01   4.000000E-01   4.000000E-01   4.000000E-01   4.000000E-01   4.000000E-01   4.000000E-01   4.000000E-01   4.000000E-01   4.000000E-01   4.000000E-01   4.000000E-01   4.000000E-01   4.000000E-01   4.000000E-01   4.000000E-01   4.000000E-01   4.000000E-01   4.000000E-01   4.000000E-01   4.000000E-01   4.000000E-01   4.000000E-01   4.000000E-01   4.000000E-01   4.000000E-01   4.000000E-01   4.000000E-01   4.000000E-01   4.000000E-01   4.000000E-01   4.000000E-01   4.000000E-01   4.000000E-01   4.000000E-01   4.000000E-01   4.000000E-01   4.000000E-01   4.000000E-01   4.000000E-01   4.000000E-01   4.000000E-01   4.000000E-01   4.000000E-01   4.000000E-01   4.000000E-01   4.000000E-01   4.000000E-01   4.000000E-01   4.000000E-01   4.000000E-01   4.000000E-01   4.000000E-01   4.000000E-01   4.000000E-01   4.000000E-01   4.000000E-01   4.000000E-01   4.000000E-01   4.000000E-01   4.000000E-01   4.000000E-01   4.000000E-01   4.000000E-01   4.000000E-01   4.000000E-01   4.000000E-01   4.000000E-01   4.000000E-01   4.000000E-01   4.000000E-01   4.000000E-01   4.000000E-01   4.000000E-01   4.000000E-01   4.000000E-01   4.000000E-01   4.000000E-01   4.000000E-01   4.000000E-01   4.000000E-01   4.000000E-01   4.000000E-01   4.000000E-01   4.000000E-01   4.000000E-01   4.000000E-01   4.000000E-01   4.000000E-01   4.000000E-01   4.000000E-01   4.000000E-01   4.000000E-01   4.000000E-01   4.000000E-01   4.000000E-01   4.000000E-01   4.000000E-01   4.000000E-01   4.000000E-01   4.000000E-01   4.000000E-01   4.000000E-01   4.000000E-01   4.000000E-01   4.000000E-01   4.000000E-01   4.000000E-01   4.000000E-01   4.000000E-01   4.000000E-01   4.000000E-01   4.000000E-01   4.000000E-01   4.000000E-01   4.000000E-01   4.000000E-01   4.000000E-01   4.000000E-01   4.000000E-01   4.000000E-01   4.000000E-01   4.000000E-01   4.000000E-01   4.000000E-01   4.000000E-01   4.000000E-01   4.000000E-01   4.000000E-01   4.000000E-01   4.000000E-01   4.000000E-01   4.000000E-01   4.000000E-01   4.000000E-01   4.000000E-01   4.000000E-01   4.000000E-01   4.000000E-01   4.000000E-01   4.000000E-01   4.000000E-01   4.000000E-01   4.000000E-01   4.000000E-01   4.000000E-01   4.000000E-01   4.000000E-01   4.000000E-01   4.000000E-01   4.000000E-01   4.000000E-01   4.000000E-01   4.000000E-01   4.000000E-01   4.000000E-01   4.000000E-01   4.000000E-01   4.000000E-01   4.000000E-01   4.000000E-01   4.000000E-01   4.000000E-01   4.000000E-01   4.000000E-01   4.000000E-01   4.000000E-01   4.000000E-01   4.000000E-01   4.000000E-01   4.000000E-01   4.000000E-01   4.000000E-01   4.000000E-01   4.000000E-01   4.000000E-01   4.000000E-01   4.000000E-01   4.000000E-01   4.000000E-01   4.000000E-01   4.000000E-01   4.000000E-01   4.000000E-01   4.000000E-01   4.000000E-01   4.000000E-01   4.000000E-01   4.000000E-01   4.000000E-01   4.000000E-01   4.000000E-01   4.000000E-01   4.000000E-01   4.000000E-01   4.000000E-01   4.000000E-01   4.000000E-01   4.000000E-01   4.000000E-01   4.000000E-01   4.000000E-01   4.000000E-01   4.000000E-01   4.000000E-01   4.000000E-01   4.000000E-01   4.000000E-01   4.000000E-01   4.000000E-01   4.000000E-01   4.000000E-01   4.000000E-01   4.000000E-01   4.000000E-01   4.000000E-01   4.000000E-01   4.000000E-01   4.000000E-01   4.000000E-01   4.000000E-01   4.000000E-01   4.000000E-01   4.000000E-01   4.000000E-01   4.000000E-01   4.000000E-01   4.000000E-01   4.000000E-01   4.000000E-01   4.000000E-01   4.000000E-01   4.000000E-01   4.000000E-01   4.000000E-01   4.000000E-01   4.000000E-01   4.000000E-01   4.000000E-01   4.000000E-01   4.000000E-01   4.000000E-01   4.000000E-01   4.000000E-01   4.000000E-01   4.000000E-01   4.000000E-01   4.000000E-01   4.000000E-01   4.000000E-01   4.000000E-01   4.000000E-01   4.000000E-01   4.000000E-01   4.000000E-01   4.000000E-01   4.000000E-01   4.000000E-01   4.000000E-01   4.000000E-01   4.000000E-01   4.000000E-01   4.000000E-01   4.000000E-01   4.000000E-01   4.000000E-01   4.000000E-01   4.000000E-01   4.000000E-01   4.000000E-01   4.000000E-01   4.000000E-01   4.000000E-01   4.000000E-01   4.000000E-01   4.000000E-01   4.000000E-01   4.000000E-01   4.000000E-01   4.000000E-01   4.000000E-01   4.000000E-01   4.000000E-01   4.000000E-01   4.000000E-01   4.000000E-01   4.000000E-01   4.000000E-01   4.000000E-01   4.000000E-01   4.000000E-01   4.000000E-01   4.000000E-01   4.000000E-01   4.000000E-01   4.000000E-01   4.000000E-01   4.000000E-01   4.000000E-01   4.000000E-01   4.000000E-01   4.000000E-01   4.000000E-01   4.000000E-01   4.000000E-01   4.000000E-01   4.000000E-01   4.000000E-01   4.000000E-01   4.000000E-01   4.000000E-01   4.000000E-01   4.000000E-01   4.000000E-01   4.000000E-01   4.000000E-01   4.000000E-01   4.000000E-01   4.000000E-01   4.000000E-01   4.000000E-01   4.000000E-01   4.000000E-01   4.000000E-01   4.000000E-01   4.000000E-01   4.000000E-01   4.000000E-01   4.000000E-01   4.000000E-01   4.000000E-01   4.000000E-01   4.000000E-01   4.000000E-01   4.000000E-01   4.000000E-01   4.000000E-01   4.000000E-01   4.000000E-01   4.000000E-01   4.000000E-01   4.000000E-01   4.000000E-01   4.000000E-01   4.000000E-01   4.000000E-01   4.000000E-01   4.000000E-01   4.000000E-01   4.000000E-01   4.000000E-01   4.000000E-01   4.000000E-01   4.000000E-01   4.000000E-01   4.000000E-01   4.000000E-01   4.000000E-01   4.000000E-01   4.000000E-01   4.000000E-01   4.000000E-01   4.000000E-01   4.000000E-01   4.000000E-01   4.000000E-01   4.000000E-01   4.000000E-01   4.000000E-01   4.000000E-01   4.000000E-01   4.000000E-01   4.000000E-01   4.000000E-01   4.000000E-01   4.000000E-01   4.000000E-01   4.000000E-01   4.000000E-01   4.000000E-01   4.000000E-01   4.000000E-01   4.000000E-01   4.000000E-01   4.000000E-01   4.000000E-01   4.000000E-01   4.000000E-01   4.000000E-01   4.000000E-01   4.000000E-01   4.000000E-01   4.000000E-01   4.000000E-01   4.000000E-01   4.000000E-01   4.000000E-01   4.000000E-01   4.000000E-01   4.000000E-01   4.000000E-01   4.000000E-01   4.000000E-01   4.000000E-01   4.000000E-01   4.000000E-01   4.000000E-01   4.000000E-01   4.000000E-01   4.000000E-01   4.000000E-01   4.000000E-01   4.000000E-01   4.000000E-01   4.000000E-01   4.000000E-01   4.000000E-01   4.000000E-01   4.000000E-01   4.000000E-01   4.000000E-01   4.000000E-01   4.000000E-01   4.000000E-01   4.000000E-01   4.000000E-01   4.000000E-01   4.000000E-01   4.000000E-01   4.000000E-01   4.000000E-01   4.000000E-01   4.000000E-01   4.000000E-01   4.000000E-01   4.000000E-01   4.000000E-01   4.000000E-01   4.000000E-01   4.000000E-01   4.000000E-01   4.000000E-01   4.000000E-01   4.000000E-01   4.000000E-01   4.000000E-01   4.000000E-01   4.000000E-01   4.000000E-01   4.000000E-01   4.000000E-01   4.000000E-01   4.000000E-01   4.000000E-01   4.000000E-01   4.000000E-01   4.000000E-01   4.000000E-01   4.000000E-01   4.000000E-01   4.000000E-01   4.000000E-01   4.000000E-01   4.000000E-01   4.000000E-01   4.000000E-01   4.000000E-01   4.000000E-01   4.000000E-01   4.000000E-01   4.000000E-01   4.000000E-01   4.000000E-01   4.000000E-01   4.000000E-01   4.000000E-01   4.000000E-01   4.000000E-01   4.000000E-01   4.000000E-01   4.000000E-01   4.000000E-01   4.000000E-01   4.000000E-01   4.000000E-01   4.000000E-01   4.000000E-01   4.000000E-01   4.000000E-01   4.000000E-01   4.000000E-01   4.000000E-01   4.000000E-01   4.000000E-01   4.000000E-01   4.000000E-01   4.000000E-01   4.000000E-01   4.000000E-01   4.000000E-01   4.000000E-01   4.000000E-01   4.000000E-01   4.000000E-01   4.000000E-01   4.000000E-01   4.000000E-01   4.000000E-01   4.000000E-01   4.000000E-01   4.000000E-01   4.000000E-01   4.000000E-01   4.000000E-01   4.000000E-01   4.000000E-01   4.000000E-01   4.000000E-01   4.000000E-01   4.000000E-01   4.000000E-01   4.000000E-01   4.000000E-01   4.000000E-01   4.000000E-01   4.000000E-01   4.000000E-01   4.000000E-01   4.000000E-01   4.000000E-01   4.000000E-01   4.000000E-01   4.000000E-01   4.000000E-01   4.000000E-01   4.000000E-01   4.000000E-01   4.000000E-01   4.000000E-01   4.000000E-01   4.000000E-01   4.000000E-01   4.000000E-01   4.000000E-01   4.000000E-01   4.000000E-01   4.000000E-01   4.000000E-01   4.000000E-01   4.000000E-01   4.000000E-01   4.000000E-01   4.000000E-01   4.000000E-01   4.000000E-01   4.000000E-01   4.000000E-01   4.000000E-01   4.000000E-01   4.000000E-01   4.000000E-01   4.000000E-01   4.000000E-01   4.000000E-01   4.000000E-01   4.000000E-01   4.000000E-01   4.000000E-01   4.000000E-01   4.000000E-01   4.000000E-01   4.000000E-01   4.000000E-01   4.000000E-01   4.000000E-01   4.000000E-01   4.000000E-01   4.000000E-01   4.000000E-01   4.000000E-01   4.000000E-01   4.000000E-01   4.000000E-01   4.000000E-01   4.000000E-01   4.000000E-01   4.000000E-01   4.000000E-01   4.000000E-01   4.000000E-01   4.000000E-01   4.000000E-01   4.000000E-01   4.000000E-01   4.000000E-01   4.000000E-01   4.000000E-01   4.000000E-01   4.000000E-01   4.000000E-01   4.000000E-01   4.000000E-01   4.000000E-01   4.000000E-01   4.000000E-01   4.000000E-01   4.000000E-01   4.000000E-01   4.000000E-01   4.000000E-01   4.000000E-01   4.000000E-01   4.000000E-01   4.000000E-01   4.000000E-01   4.000000E-01   4.000000E-01   4.000000E-01   4.000000E-01   4.000000E-01   4.000000E-01   4.000000E-01   4.000000E-01   4.000000E-01   4.000000E-01   4.000000E-01   4.000000E-01   4.000000E-01   4.000000E-01   4.000000E-01   4.000000E-01   4.000000E-01   4.000000E-01   4.000000E-01   4.000000E-01   4.000000E-01   4.000000E-01   4.000000E-01   4.000000E-01   4.000000E-01   4.000000E-01   4.000000E-01   4.000000E-01   4.000000E-01   4.000000E-01   4.000000E-01   4.000000E-01   4.000000E-01   4.000000E-01   4.000000E-01   4.000000E-01   4.000000E-01   4.000000E-01   4.000000E-01   4.000000E-01   4.000000E-01   4.000000E-01   4.000000E-01   4.000000E-01   4.000000E-01   4.000000E-01   4.000000E-01   4.000000E-01   4.000000E-01   4.000000E-01   4.000000E-01   4.000000E-01   4.000000E-01   4.000000E-01   4.000000E-01   4.000000E-01   4.000000E-01   4.000000E-01   4.000000E-01   4.000000E-01   4.000000E-01   4.000000E-01   4.000000E-01   4.000000E-01   4.000000E-01   4.000000E-01   4.000000E-01   4.000000E-01   4.000000E-01   4.000000E-01   4.000000E-01   4.000000E-01   4.000000E-01   4.000000E-01   4.000000E-01   4.000000E-01   4.000000E-01   4.000000E-01   4.000000E-01   4.000000E-01   4.000000E-01   4.000000E-01   4.000000E-01   4.000000E-01   4.000000E-01   4.000000E-01   4.000000E-01   4.000000E-01   4.000000E-01   4.000000E-01   4.000000E-01   4.000000E-01   4.000000E-01   4.000000E-01   4.000000E-01   4.000000E-01   4.000000E-01   4.000000E-01   4.000000E-01   4.000000E-01   4.000000E-01   4.000000E-01   4.000000E-01   4.000000E-01   4.000000E-01   4.000000E-01   4.000000E-01   4.000000E-01   4.000000E-01   4.000000E-01   4.000000E-01   4.000000E-01   4.000000E-01   4.000000E-01   4.000000E-01   4.000000E-01   4.000000E-01   4.000000E-01   4.000000E-01   4.000000E-01   4.000000E-01   4.000000E-01   4.000000E-01   4.000000E-01   4.000000E-01   4.000000E-01   4.000000E-01   4.000000E-01   4.000000E-01   4.000000E-01   4.000000E-01   4.000000E-01   4.000000E-01   4.000000E-01   4.000000E-01   4.000000E-01   4.000000E-01   4.000000E-01   4.000000E-01   4.000000E-01   4.000000E-01   4.000000E-01   4.000000E-01   4.000000E-01   4.000000E-01   4.000000E-01   4.000000E-01   4.000000E-01   4.000000E-01   4.000000E-01   4.000000E-01   4.000000E-01   4.000000E-01   4.000000E-01   4.000000E-01   4.000000E-01   4.000000E-01   4.000000E-01   4.000000E-01   4.000000E-01   4.000000E-01   4.000000E-01   4.000000E-01   4.000000E-01   4.000000E-01   4.000000E-01   4.000000E-01   4.000000E-01   4.000000E-01   4.000000E-01   4.000000E-01   4.000000E-01   4.000000E-01   4.000000E-01   4.000000E-01   4.000000E-01   4.000000E-01   4.000000E-01   4.000000E-01   4.000000E-01   4.000000E-01   4.000000E-01   4.000000E-01   4.000000E-01   4.000000E-01   4.000000E-01   4.000000E-01   4.000000E-01   4.000000E-01   4.000000E-01   4.000000E-01   4.000000E-01   4.000000E-01   4.000000E-01   4.000000E-01   4.000000E-01   4.000000E-01   4.000000E-01   4.000000E-01   4.000000E-01   4.000000E-01   4.000000E-01   4.000000E-01   4.000000E-01   4.000000E-01   4.000000E-01   4.000000E-01   4.000000E-01   4.000000E-01   4.000000E-01   4.000000E-01   4.000000E-01   4.000000E-01   4.000000E-01   4.000000E-01   4.000000E-01   4.000000E-01   4.000000E-01   4.000000E-01   4.000000E-01   4.000000E-01   4.000000E-01   4.000000E-01   4.000000E-01   4.000000E-01   4.000000E-01   4.000000E-01   4.000000E-01   4.000000E-01   4.000000E-01   4.000000E-01   4.000000E-01   4.000000E-01   4.000000E-01   4.000000E-01   4.000000E-01   4.000000E-01   4.000000E-01   4.000000E-01   4.000000E-01   4.000000E-01   4.000000E-01   4.000000E-01   4.000000E-01   4.000000E-01   4.000000E-01   4.000000E-01   4.000000E-01   4.000000E-01   4.000000E-01   4.000000E-01   4.000000E-01   4.000000E-01   4.000000E-01   4.000000E-01   4.000000E-01   4.000000E-01   4.000000E-01   4.000000E-01   4.000000E-01   4.000000E-01   4.000000E-01   4.000000E-01   4.000000E-01   4.000000E-01   4.000000E-01   4.000000E-01   4.000000E-01   4.000000E-01   4.000000E-01   4.000000E-01   4.000000E-01   4.000000E-01   4.000000E-01   4.000000E-01   4.000000E-01   4.000000E-01   4.000000E-01   4.000000E-01   4.000000E-01   4.000000E-01   4.000000E-01   4.000000E-01   4.000000E-01   4.000000E-01   4.000000E-01   4.000000E-01   