<?xml version="1.0"?>
<!-- Time =  2.0065029269476795E-01s -->
<VTKFile type="PolyData" version="0.1" byte_order="LittleEndian">
<PolyData>
<Piece NumberOfPoints="0000002400" NumberOfVerts="0" NumberOfLines="0" NumberOfStrips="0" NumberOfPolys="0">
<Points>
<DataArray type="Float32" Name="Position" NumberOfComponents="3" format="ascii">
  8.992898E-01   1.996049E-01   0.000000E+00   1.612039E+00   1.987649E-01   0.000000E+00   2.040609E+00   1.958184E-01   0.000000E+00   2.831551E+00   2.002892E-01   0.000000E+00   3.229233E+00   1.980560E-01   0.000000E+00   4.031320E+00   1.965492E-01   0.000000E+00   4.430800E+00   1.986715E-01   0.000000E+00   4.830266E+00   1.988547E-01   0.000000E+00   5.230364E+00   1.987169E-01   0.000000E+00   6.286435E+00   2.002492E-01   0.000000E+00   6.778513E+00   4.450555E-01   0.000000E+00   6.723978E+00   1.230927E+00   0.000000E+00   6.161053E+00   8.701564E+00   0.000000E+00   7.535892E+00   8.605207E+00   0.000000E+00   6.468793E+00   5.745835E+00   0.000000E+00   7.833769E+00   5.524547E+00   0.000000E+00   1.995400E-01   1.991147E-01   0.000000E+00   1.256170E+00   3.826816E-01   0.000000E+00   1.831431E+00   5.327895E-01   0.000000E+00   2.436086E+00   2.539201E-01   0.000000E+00   3.031674E+00   5.460764E-01   0.000000E+00   3.630074E+00   1.949950E-01   0.000000E+00   4.231424E+00   5.424299E-01   0.000000E+00   4.631480E+00   5.442401E-01   0.000000E+00   5.030618E+00   5.441335E-01   0.000000E+00   5.646211E+00   1.979031E-01   0.000000E+00   6.529786E+00   7.589452E-01   0.000000E+00   7.641130E+00   2.035591E+00   0.000000E+00   7.393572E+00   6.579144E+00   0.000000E+00   5.737260E+00   9.151196E+00   0.000000E+00   4.953983E+00   8.679595E+00   0.000000E+00   7.233337E+00   9.945688E+00   0.000000E+00   5.491381E-01   3.931152E-01   0.000000E+00   1.483151E+00   7.256808E-01   0.000000E+00   2.216792E+00   6.432634E-01   0.000000E+00   2.617729E+00   6.099283E-01   0.000000E+00   3.432184E+00   5.405099E-01   0.000000E+00   3.830508E+00   5.398473E-01   0.000000E+00   4.432421E+00   8.880253E-01   0.000000E+00   4.831759E+00   8.905608E-01   0.000000E+00   5.440325E+00   5.386341E-01   0.000000E+00   5.965197E+00   4.382871E-01   0.000000E+00   6.975072E+00   1.616850E+00   0.000000E+00   7.513554E+00   4.054476E+00   0.000000E+00   6.995530E+00   2.429207E+00   0.000000E+00   6.897818E+00   5.390390E+00   0.000000E+00   7.389713E+00   9.568857E+00   0.000000E+00   6.290178E+00   9.111577E+00   0.000000E+00   6.747561E+00   7.744103E+00   0.000000E+00   2.002592E-01   5.978540E-01   0.000000E+00   9.188907E-01   5.990584E-01   0.000000E+00   1.162833E+00   9.626666E-01   0.000000E+00   1.927652E+00   9.181304E-01   0.000000E+00   2.307121E+00   1.045509E+00   0.000000E+00   2.877599E+00   9.132929E-01   0.000000E+00   3.631256E+00   8.849759E-01   0.000000E+00   4.030510E+00   8.862341E-01   0.000000E+00   4.630821E+00   1.235956E+00   0.000000E+00   5.240775E+00   8.830625E-01   0.000000E+00   5.733023E+00   8.097453E-01   0.000000E+00   6.132411E+00   8.061886E-01   0.000000E+00   6.336129E+00   1.149373E+00   0.000000E+00   6.609430E+00   2.537704E+00   0.000000E+00   7.777540E+00   7.038767E+00   0.000000E+00   6.555184E+00   4.856906E+00   0.000000E+00   3.667587E-01   9.595339E-01   0.000000E+00   7.650080E-01   9.678472E-01   0.000000E+00   1.582082E+00   1.118098E+00   0.000000E+00   1.980387E+00   1.310779E+00   0.000000E+00   2.654342E+00   1.242766E+00   0.000000E+00   3.259300E+00   1.030175E+00   0.000000E+00   3.812864E+00   1.248194E+00   0.000000E+00   4.231397E+00   1.231335E+00   0.000000E+00   5.044553E+00   1.229117E+00   0.000000E+00   5.532758E+00   1.156093E+00   0.000000E+00   5.934074E+00   1.155011E+00   0.000000E+00   6.138529E+00   1.498527E+00   0.000000E+00   6.352998E+00   2.089644E+00   0.000000E+00   6.603337E+00   1.778223E+00   0.000000E+00   7.122939E+00   8.585028E+00   0.000000E+00   7.700425E+00   1.018855E+01   0.000000E+00   1.993428E-01   1.321150E+00   0.000000E+00   5.988919E-01   1.331311E+00   0.000000E+00   1.256281E+00   1.350408E+00   0.000000E+00   1.631379E+00   1.513756E+00   0.000000E+00   2.338969E+00   1.486305E+00   0.000000E+00   3.037537E+00   1.365458E+00   0.000000E+00   3.437840E+00   1.387667E+00   0.000000E+00   4.052116E+00   1.585879E+00   0.000000E+00   4.845460E+00   1.573194E+00   0.000000E+00   5.334945E+00   1.503374E+00   0.000000E+00   5.734596E+00   1.501836E+00   0.000000E+00   5.939625E+00   1.845967E+00   0.000000E+00   6.091611E+00   2.392524E+00   0.000000E+00   7.040801E+00   4.534418E+00   0.000000E+00   7.227445E+00   7.479588E+00   0.000000E+00   6.978710E+00   6.995005E+00   0.000000E+00   1.998233E-01   1.719814E+00   0.000000E+00   9.206814E-01   1.568032E+00   0.000000E+00   1.301873E+00   1.747183E+00   0.000000E+00   2.005477E+00   1.706787E+00   0.000000E+00   2.729523E+00   1.635815E+00   0.000000E+00   3.118367E+00   1.761209E+00   0.000000E+00   3.673485E+00   1.710958E+00   0.000000E+00   4.449810E+00   1.624492E+00   0.000000E+00   5.132210E+00   1.851624E+00   0.000000E+00   5.534101E+00   1.850212E+00   0.000000E+00   5.741488E+00   2.193439E+00   0.000000E+00   5.911417E+00   2.750633E+00   0.000000E+00   6.842379E+00   3.004604E+00   0.000000E+00   7.172316E+00   1.056876E+01   0.000000E+00   6.401938E+00   3.534552E+00   0.000000E+00   7.530849E+00   5.215324E+00   0.000000E+00   2.457087E-01   2.115650E+00   0.000000E+00   5.893019E-01   1.812047E+00   0.000000E+00   9.598000E-01   1.965617E+00   0.000000E+00   1.663531E+00   1.911952E+00   0.000000E+00   2.371602E+00   1.884433E+00   0.000000E+00   2.748297E+00   2.033651E+00   0.000000E+00   3.445671E+00   2.038778E+00   0.000000E+00   4.224711E+00   1.954710E+00   0.000000E+00   4.700494E+00   1.944210E+00   0.000000E+00   5.337972E+00   2.197774E+00   0.000000E+00   5.564760E+00   2.551397E+00   0.000000E+00   5.757771E+00   3.137078E+00   0.000000E+00   6.329502E+00   2.825520E+00   0.000000E+00   6.991826E+00   6.172522E+00   0.000000E+00   6.940934E+00   3.961488E+00   0.000000E+00   5.751547E+00   5.941019E+00   0.000000E+00   7.261418E+00   3.415688E+00   0.000000E+00   1.972515E-01   2.511249E+00   0.000000E+00   6.328130E-01   2.213019E+00   0.000000E+00   1.331585E+00   2.143944E+00   0.000000E+00   2.037767E+00   2.103202E+00   0.000000E+00   2.405125E+00   2.281611E+00   0.000000E+00   3.097199E+00   2.232001E+00   0.000000E+00   3.843673E+00   2.074601E+00   0.000000E+00   4.530191E+00   2.304432E+00   0.000000E+00   4.943004E+00   2.262067E+00   0.000000E+00   5.175770E+00   2.643191E+00   0.000000E+00   4.971830E+00   2.988170E+00   0.000000E+00   5.377745E+00   3.003805E+00   0.000000E+00   6.149369E+00   3.212258E+00   0.000000E+00   6.543939E+00   4.225529E+00   0.000000E+00   5.960565E+00   5.010446E+00   0.000000E+00   7.937207E+00   5.970820E+00   0.000000E+00   1.983575E-01   2.911351E+00   0.000000E+00   5.819391E-01   2.610307E+00   0.000000E+00   1.000470E+00   2.368229E+00   0.000000E+00   1.693766E+00   2.310263E+00   0.000000E+00   2.068124E+00   2.499184E+00   0.000000E+00   2.766153E+00   2.454903E+00   0.000000E+00   3.591172E+00   2.411567E+00   0.000000E+00   4.133099E+00   2.351093E+00   0.000000E+00   4.775368E+00   2.630248E+00   0.000000E+00   4.377439E+00   2.672055E+00   0.000000E+00   4.574088E+00   3.021993E+00   0.000000E+00   5.142122E+00   3.353475E+00   0.000000E+00   5.528711E+00   3.463817E+00   0.000000E+00   5.923757E+00   3.574384E+00   0.000000E+00   6.252059E+00   4.534405E+00   0.000000E+00   5.964915E+00   6.657833E+00   0.000000E+00   7.614687E+00   7.657302E+00   0.000000E+00   2.167433E-01   3.312325E+00   0.000000E+00   5.832793E-01   3.009457E+00   0.000000E+00   1.363482E+00   2.539712E+00   0.000000E+00   1.726407E+00   2.707562E+00   0.000000E+00   2.432292E+00   2.676811E+00   0.000000E+00   2.792501E+00   2.853313E+00   0.000000E+00   3.126363E+00   2.633511E+00   0.000000E+00   3.883808E+00   2.700193E+00   0.000000E+00   4.162781E+00   3.007450E+00   0.000000E+00   4.350969E+00   3.359090E+00   0.000000E+00   4.744922E+00   3.418614E+00   0.000000E+00   5.384635E+00   3.840503E+00   0.000000E+00   6.217524E+00   3.966026E+00   0.000000E+00   5.856147E+00   4.506017E+00   0.000000E+00   5.840545E+00   5.491522E+00   0.000000E+00   7.431498E+00   5.868535E+00   0.000000E+00   2.007771E-01   3.712462E+00   0.000000E+00   6.059573E-01   3.409063E+00   0.000000E+00   9.492941E-01   2.763415E+00   0.000000E+00   1.309124E+00   2.934769E+00   0.000000E+00   2.078348E+00   2.897089E+00   0.000000E+00   2.433994E+00   3.078879E+00   0.000000E+00   3.146581E+00   3.049909E+00   0.000000E+00   3.491725E+00   2.798370E+00   0.000000E+00   3.771502E+00   3.083697E+00   0.000000E+00   3.960690E+00   3.438862E+00   0.000000E+00   4.402550E+00   3.755956E+00   0.000000E+00   4.988915E+00   3.739058E+00   0.000000E+00   5.814245E+00   3.948838E+00   0.000000E+00   5.434938E+00   4.678932E+00   0.000000E+00   6.320363E+00   5.326408E+00   0.000000E+00   5.166177E+00   6.223188E+00   0.000000E+00   7.919619E+00   9.442749E-01   0.000000E+00   2.006305E-01   4.112341E+00   0.000000E+00   5.886697E-01   3.808486E+00   0.000000E+00   9.518704E-01   3.161572E+00   0.000000E+00   1.670895E+00   3.101452E+00   0.000000E+00   2.022011E+00   3.291532E+00   0.000000E+00   2.793115E+00   3.253025E+00   0.000000E+00   3.472093E+00   3.347481E+00   0.000000E+00   3.652130E+00   3.703977E+00   0.000000E+00   3.587393E+00   4.101855E+00   0.000000E+00   4.013280E+00   3.876477E+00   0.000000E+00   4.700854E+00   4.026310E+00   0.000000E+00   5.438748E+00   4.276935E+00   0.000000E+00   4.655507E+00   4.434495E+00   0.000000E+00   5.477004E+00   5.086730E+00   0.000000E+00   4.883179E+00   5.910079E+00   0.000000E+00   2.008274E-01   4.512310E+00   0.000000E+00   5.884101E-01   4.208460E+00   0.000000E+00   9.763066E-01   3.559330E+00   0.000000E+00   1.315550E+00   3.334699E+00  
[...]
<PointData Scalars="Diameter" Vectors="Velocity">
<DataArray type="Float32" Name="Diameter" format="ascii">
  4.000000E-01   4.000000E-01   4.000000E-01   4.000000E-01   4.000000E-01   4.000000E-01   4.000000E-01   4.000000E-01   4.000000E-01   4.000000E-01   4.000000E-01   4.000000E-01   4.000000E-01   4.000000E-01   4.000000E-01   4.000000E-01   4.000000E-01   4.000000E-01   4.000000E-01   4.000000E-01   4.000000E-01   4.000000E-01   4.000000E-01   4.000000E-01   4.000000E-01   4.000000E-01   4.000000E-01   4.000000E-01   4.000000E-01   4.000000E-01   4.000000E-01   4.000000E-01   4.000000E-01   4.000000E-01   4.000000E-01   4.000000E-01   4.000000E-01   4.000000E-01   4.000000E-01   4.000000E-01   4.000000E-01   4.000000E-01   4.000000E-01   4.000000E-01   4.000000E-01   4.000000E-01   4.000000E-01   4.000000E-01   4.000000E-01   4.000000E-01   4.000000E-01   4.000000E-01   4.000000E-01   4.000000E-01   4.000000E-01   4.000000E-01   4.000000E-01   4.000000E-01   4.000000E-01   4.000000E-01   4.000000E-01   4.000000E-01   4.000000E-01   4.000000E-01   4.000000E-01   4.000000E-01   4.000000E-01   4.000000E-01   4.000000E-01   4.000000E-01   4.000000E-01   4.000000E-01   4.000000E-01   4.000000E-01   4.000000E-01   4.000000E-01   4.000000E-01   4.000000E-01   4.000000E-01   4.000000E-01   4.000000E-01   4.000000E-01   4.000000E-01   4.000000E-01   4.000000E-01   4.000000E-01   4.000000E-01   4.000000E-01   4.000000E-01   4.000000E-01   4.000000E-01   4.000000E-01   4.000000E-01   4.000000E-01   4.000000E-01   4.000000E-01   4.000000E-01   4.000000E-01   4.000000E-01   4.000000E-01   4.000000E-01   4.000000E-01   4.000000E-01   4.000000E-01   4.000000E-01   4.000000E-01   4.000000E-01   4.000000E-01   4.000000E-01   4.000000E-01   4.000000E-01   4.000000E-01   4.000000E-01   4.000000E-01   4.000000E-01   4.000000E-01   4.000000E-01   4.000000E-01   4.000000E-01   4.000000E-01   4.000000E-01   4.000000E-01   4.000000E-01   4.000000E-01   4.000000E-01   4.000000E-01   4.000000E-01   4.000000E-01   4.000000E-01   4.000000E-01   4.000000E-01   4.000000E-01   4.000000E-01   4.000000E-01   4.000000E-01   4.000000E-01   4.000000E-01   4.000000E-01   4.000000E-01   4.000000E-01   4.000000E-01   4.000000E-01   4.000000E-01   4.000000E-01   4.000000E-01   4.000000E-01   4.000000E-01   4.000000E-01   4.000000E-01   4.000000E-01   4.000000E-01   4.000000E-01   4.000000E-01   4.000000E-01   4.000000E-01   4.000000E-01   4.000000E-01   4.000000E-01   4.000000E-01   4.000000E-01   4.000000E-01   4.000000E-01   4.000000E-01   4.000000E-01   4.000000E-01   4.000000E-01   4.000000E-01   4.000000E-01   4.000000E-01   4.000000E-01   4.000000E-01   4.000000E-01   4.000000E-01   4.000000E-01   4.000000E-01   4.000000E-01   4.000000E-01   4.000000E-01   4.000000E-01   4.000000E-01   4.000000E-01   4.000000E-01   4.000000E-01   4.000000E-01   4.000000E-01   4.000000E-01   4.000000E-01   4.000000E-01   4.000000E-01   4.000000E-01   4.000000E-01   4.000000E-01   4.000000E-01   4.000000E-01   4.000000E-01   4.000000E-01   4.000000E-01   4.000000E-01   4.000000E-01   4.000000E-01   4.000000E-01   4.000000E-01   4.000000E-01   4.000000E-01   4.000000E-01   4.000000E-01   4.000000E-01   4.000000E-01   4.000000E-01   4.000000E-01   4.000000E-01   4.000000E-01   4.000000E-01   4.000000E-01   4.000000E-01   4.000000E-01   4.000000E-01   4.000000E-01   4.000000E-01   4.000000E-01   4.000000E-01   4.000000E-01   4.000000E-01   4.000000E-01   4.000000E-01   4.000000E-01   4.000000E-01   4.000000E-01   4.000000E-01   4.000000E-01   4.000000E-01   4.000000E-01   4.000000E-01   4.000000E-01   4.000000E-01   4.000000E-01   4.000000E-01   4.000000E-01   4.000000E-01   4.000000E-01   4.000000E-01   4.000000E-01   4.000000E-01   4.000000E-01   4.000000E-01   4.000000E-01   4.000000E-01   4.000000E-01   4.000000E-01   4.000000E-01   4.000000E-01   4.000000E-01   4.000000E-01   4.000000E-01   4.000000E-01   4.000000E-01   4.000000E-01   4.000000E-01   4.000000E-01   4.000000E-01   4.000000E-01   4.000000E-01   4.000000E-01   4.000000E-01   4.000000E-01   4.000000E-01   4.000000E-01   4.000000E-01   4.000000E-01   4.000000E-01   4.000000E-01   4.000000E-01   4.000000E-01   4.000000E-01   4.000000E-01   4.000000E-01   4.000000E-01   4.000000E-01   4.000000E-01   4.000000E-01   4.000000E-01   4.000000E-01   4.000000E-01   4.000000E-01   4.000000E-01   4.000000E-01   4.000000E-01   4.000000E-01   4.000000E-01   4.000000E-01   4.000000E-01   4.000000E-01   4.000000E-01   4.000000E-01   4.000000E-01   4.000000E-01   4.000000E-01   4.000000E-01   4.000000E-01   4.000000E-01   4.000000E-01   4.000000E-01   4.000000E-01   4.000000E-01   4.000000E-01   4.000000E-01   4.000000E-01   4.000000E-01   4.000000E-01   4.000000E-01   4.000000E-01   4.000000E-01   4.000000E-01   4.000000E-01   4.000000E-01   4.000000E-01   4.000000E-01   4.000000E-01   4.000000E-01   4.000000E-01   4.000000E-01   4.000000E-01   4.000000E-01   4.000000E-01   4.000000E-01   4.000000E-01   4.000000E-01   4.000000E-01   4.000000E-01   4.000000E-01   4.000000E-01   4.000000E-01   4.000000E-01   4.000000E-01   4.000000E-01   4.000000E-01   4.000000E-01   4.000000E-01   4.000000E-01   4.000000E-01   4.000000E-01   4.000000E-01   4.000000E-01   4.000000E-01   4.000000E-01   4.000000E-01   4.000000E-01   4.000000E-01   4.000000E-01   4.000000E-01   4.000000E-01   4.000000E-01   4.000000E-01   4.000000E-01   4.000000E-01   4.000000E-01   4.000000E-01   4.000000E-01   4.000000E-01   4.000000E-01   4.000000E-01   4.000000E-01   4.000000E-01   4.000000E-01   4.000000E-01   4.000000E-01   4.000000E-01   4.000000E-01   4.000000E-01   4.000000E-01   4.000000E-01   4.000000E-01   4.000000E-01   4.000000E-01   4.000000E-01   4.000000E-01   4.000000E-01   4.000000E-01   4.000000E-01   4.000000E-01   4.000000E-01   4.000000E-01   4.000000E-01   4.000000E-01   4.000000E-01   4.000000E-01   4.000000E-01   4.000000E-01   4.000000E-01   4.000000E-01   4.000000E-01   4.000000E-01   4.000000E-01   4.000000E-01   4.000000E-01   4.000000E-01   4.000000E-01   4.000000E-01   4.000000E-01   4.000000E-01   4.000000E-01   4.000000E-01   4.000000E-01   4.000000E-01   4.000000E-01   4.000000E-01   4.000000E-01   4.000000E-01   4.000000E-01   4.000000E-01   4.000000E-01   4.000000E-01   4.000000E-01   4.000000E-01   4.000000E-01   4.000000E-01   4.000000E-01   4.000000E-01   4.000000E-01   4.000000E-01   4.000000E-01   4.000000E-01   4.000000E-01   4.000000E-01   4.000000E-01   4.000000E-01   4.000000E-01   4.000000E-01   4.000000E-01   4.000000E-01   4.000000E-01   4.000000E-01   4.000000E-01   4.000000E-01   4.000000E-01   4.000000E-01   4.000000E-01   4.000000E-01   4.000000E-01   4.000000E-01   4.000000E-01   4.000000E-01   4.000000E-01   4.000000E-01   4.000000E-01   4.000000E-01   4.000000E-01   4.000000E-01   4.000000E-01   4.000000E-01   4.000000E-01   4.000000E-01   4.000000E-01   4.000000E-01   4.000000E-01   4.000000E-01   4.000000E-01   4.000000E-01   4.000000E-01   4.000000E-01   4.000000E-01   4.000000E-01   4.000000E-01   4.000000E-01   4.000000E-01   4.000000E-01   4.000000E-01   4.000000E-01   4.000000E-01   4.000000E-01   4.000000E-01   4.000000E-01   4.000000E-01   4.000000E-01   4.000000E-01   4.000000E-01   4.000000E-01   4.000000E-01   4.000000E-01   4.000000E-01   4.000000E-01   4.000000E-01   4.000000E-01   4.000000E-01   4.000000E-01   4.000000E-01   4.000000E-01   4.000000E-01   4.000000E-01   4.000000E-01   4.000000E-01   4.000000E-01   4.000000E-01   4.000000E-01   4.000000E-01   4.000000E-01   4.000000E-01   4.000000E-01   4.000000E-01   4.000000E-01   4.000000E-01   4.000000E-01   4.000000E-01   4.000000E-01   4.000000E-01   4.000000E-01   4.000000E-01   4.000000E-01   4.000000E-01   4.000000E-01   4.000000E-01   4.000000E-01   4.000000E-01   4.000000E-01   4.000000E-01   4.000000E-01   4.000000E-01   4.000000E-01   4.000000E-01   4.000000E-01   4.000000E-01   4.000000E-01   4.000000E-01   4.000000E-01   4.000000E-01   4.000000E-01   4.000000E-01   4.000000E-01   4.000000E-01   4.000000E-01   4.000000E-01   4.000000E-01   4.000000E-01   4.000000E-01   4.000000E-01   4.000000E-01   4.000000E-01   4.000000E-01   4.000000E-01   4.000000E-01   4.000000E-01   4.000000E-01   4.000000E-01   4.000000E-01   4.000000E-01   4.000000E-01   4.000000E-01   4.000000E-01   4.000000E-01   4.000000E-01   4.000000E-01   4.000000E-01   4.000000E-01   4.000000E-01   4.000000E-01   4.000000E-01   4.000000E-01   4.000000E-01   4.000000E-01   4.000000E-01   4.000000E-01   4.000000E-01   4.000000E-01   4.000000E-01   4.000000E-01   4.000000E-01   4.000000E-01   4.000000E-01   4.000000E-01   4.000000E-01   4.000000E-01   4.000000E-01   4.000000E-01   4.000000E-01   4.000000E-01   4.000000E-01   4.000000E-01   4.000000E-01   4.000000E-01   4.000000E-01   4.000000E-01   4.000000E-01   4.000000E-01   4.000000E-01   4.000000E-01   4.000000E-01   4.000000E-01   4.000000E-01   4.000000E-01   4.000000E-01   4.000000E-01   4.000000E-01   4.000000E-01   4.000000E-01   4.000000E-01   4.000000E-01   4.000000E-01   4.000000E-01   4.000000E-01   4.000000E-01   4.000000E-01   4.000000E-01   4.000000E-01   4.000000E-01   4.000000E-01   4.000000E-01   4.000000E-01   4.000000E-01   4.000000E-01   4.000000E-01   4.000000E-01   4.000000E-01   4.000000E-01   4.000000E-01   4.000000E-01   4.000000E-01   4.000000E-01   4.000000E-01   4.000000E-01   4.000000E-01   4.000000E-01   4.000000E-01   4.000000E-01   4.000000E-01   4.000000E-01   4.000000E-01   4.000000E-01   4.000000E-01   4.000000E-01   4.000000E-01   4.000000E-01   4.000000E-01   4.000000E-01   4.000000E-01   4.000000E-01   4.000000E-01   4.000000E-01   4.000000E-01   4.000000E-01   4.000000E-01   4.000000E-01   4.000000E-01   4.000000E-01   4.000000E-01   4.000000E-01   4.000000E-01   4.000000E-01   4.000000E-01   4.000000E-01   4.000000E-01   4.000000E-01   4.000000E-01   4.000000E-01   4.000000E-01   4.000000E-01   4.000000E-01   4.000000E-01   4.000000E-01   4.000000E-01   4.000000E-01   4.000000E-01   4.000000E-01   4.000000E-01   4.000000E-01   4.000000E-01   4.000000E-01   4.000000E-01   4.000000E-01   4.000000E-01   4.000000E-01   4.000000E-01   4.000000E-01   4.000000E-01   4.000000E-01   4.000000E-01   4.000000E-01   4.000000E-01   4.000000E-01   4.000000E-01   4.000000E-01   4.000000E-01   4.000000E-01   4.000000E-01   4.000000E-01   4.000000E-01   4.000000E-01   4.000000E-01   4.000000E-01   4.000000E-01   4.000000E-01   4.000000E-01   4.000000E-01   4.000000E-01   4.000000E-01   4.000000E-01   4.000000E-01   4.000000E-01   4.000000E-01   4.000000E-01   4.000000E-01   4.000000E-01   4.000000E-01   4.000000E-01   4.000000E-01   4.000000E-01   4.000000E-01   4.000000E-01   4.000000E-01   4.000000E-01   4.000000E-01   4.000000E-01   4.000000E-01   4.000000E-01   4.000000E-01   4.000000E-01   4.000000E-01   4.000000E-01   4.000000E-01   4.000000E-01   4.000000E-01   4.000000E-01   4.000000E-01   4.000000E-01   4.000000E-01   4.000000E-01   4.000000E-01   4.000000E-01   4.000000E-01   4.000000E-01   4.000000E-01   4.000000E-01   4.000000E-01   4.000000E-01   4.000000E-01   4.000000E-01   4.000000E-01   4.000000E-01   4.000000E-01   4.000000E-01   4.000000E-01   4.000000E-01   4.000000E-01   4.000000E-01   4.000000E-01   4.000000E-01   4.000000E-01   4.000000E-01   4.000000E-01   4.000000E-01   4.000000E-01   4.000000E-01   4.000000E-01   4.000000E-01   4.000000E-01   4.000000E-01   4.000000E-01   4.000000E-01   4.000000E-01   4.000000E-01   4.000000E-01   4.000000E-01   4.000000E-01   4.000000E-01   4.000000E-01   4.000000E-01   4.000000E-01   4.000000E-01   4.000000E-01   4.000000E-01   4.000000E-01   4.000000E-01   4.000000E-01   4.000000E-01   4.000000E-01   4.000000E-01   4.000000E-01   4.000000E-01   4.000000E-01   4.000000E-01   4.000000E-01   4.000000E-01   4.000000E-01   4.000000E-01   4.000000E-01   4.000000E-01   4.000000E-01   4.000000E-01   4.000000E-01   4.000000E-01   4.000000E-01   4.000000E-01   4.000000E-01   4.000000E-01   4.000000E-01   4.000000E-01   4.000000E-01   4.000000E-01   4.000000E-01   4.000000E-01   4.000000E-01   4.000000E-01   4.000000E-01   4.000000E-01   4.000000E-01   4.000000E-01   4.000000E-01   4.000000E-01   4.000000E-01   4.000000E-01   4.000000E-01   4.000000E-01   4.000000E-01   4.000000E-01   4.000000E-01   4.000000E-01   4.000000E-01   4.000000E-01   4.000000E-01   4.000000E-01   4.000000E-01   4.000000E-01   4.000000E-01   4.000000E-01   4.000000E-01   4.000000E-01   4.000000E-01   4.000000E-01   4.000000E-01   4.000000E-01   4.000000E-01   4.000000E-01   4.000000E-01   4.000000E-01   4.000000E-01   4.000000E-01   4.000000E-01   4.000000E-01   4.000000E-01   4.000000E-01   4.000000E-01   4.000000E-01   4.000000E-01   4.000000E-01   4.000000E-01   4.000000E-01   4.000000E-01   4.000000E-01   4.000000E-01   4.000000E-01   4.000000E-01   4.000000E-01   4.000000E-01   4.000000E-01   4.000000E-01   4.000000E-01   4.000000E-01   4.000000E-01   4.000000E-01   4.000000E-01   4.000000E-01   4.000000E-01   4.000000E-01   4.000000E-01   4.000000E-01   4.000000E-01   4.000000E-01   4.000000E-01   4.000000E-01   4.000000E-01   4.000000E-01   4.000000E-01   4.000000E-01   4.000000E-01   4.000000E-01   4.000000E-01   4.000000E-01   4.000000E-01   4.000000E-01   4.000000E-01   4.000000E-01   4.000000E-01   4.000000E-01   4.000000E-01   4.000000E-01   4.000000E-01   4.000000E-01   4.000000E-01   4.000000E-01   4.000000E-01   4.000000E-01   4.000000E-01   4.000000E-01   4.000000E-01   4.000000E-01   4.000000E-01   4.000000E-01   4.000000E-01   4.000000E-01   4.000000E-01   4.000000E-01   4.000000E-01   4.000000E-01   4.000000E-01   4.000000E-01   4.000000E-01   4.000000E-01   4.000000E-01   4.000000E-01   4.000000E-01   4.000000E-01   4.000000E-01   4.000000E-01   4.000000E-01   4.000000E-01   4.000000E-01   4.000000E-01   4.000000E-01   4.000000E-01   4.000000E-01   4.000000E-01   4.000000E-01   4.000000E-01   4.000000E-01   4.000000E-01   4.000000E-01   4.000000E-01   4.000000E-01   4.000000E-01   4.000000E-01   4.000000E-01   4.000000E-01   4.000000E-01   4.000000E-01   4.000000E-01   4.000000E-01   4.000000E-01   4.000000E-01   4.000000E-01   4.000000E-01   4.000000E-01   4.000000E-01   4.000000E-01   4.000000E-01   4.000000E-01   4.000000E-01   4.000000E-01   4.000000E-01   4.000000E-01   4.000000E-01   4.000000E-01   4.000000E-01   4.000000E-01   4.000000E-01   4.000000E-01   4.000000E-01   4.000000E-01   4.000000E-01   4.000000E-01   4.000000E-01   4.000000E-01   4.000000E-01   4.000000E-01   4.000000E-01   4.000000E-01   4.000000E-01   4.000000E-01   4.000000E-01   4.000000E-01   4.000000E-01   4.000000E-01   4.000000E-01   4.000000E-01   4.000000E-01   4.000000E-01   4.000000E-01   4.000000E-01   4.000000E-01   4.000000E-01   4.000000E-01   4.000000E-01   4.000000E-01   4.000000E-01   4.000000E-01   4.000000E-01   4.000000E-01   4.000000E-01   4.000000E-01   4.000000E-01   4.000000E-01   4.000000E-01   4.000000E-01   4.000000E-01   4.000000E-01   4.000000E-01   4.000000E-01   4.000000E-01   4.000000E-01   4.000000E-01   4.000000E-01   4.000000E-01   4.000000E-01   4.000000E-01   4.000000E-01   4.000000E-01   4.000000E-01   4.000000E-01   4.000000E-01   4.000000E-01   4.000000E-01   4.000000E-01   4.000000E-01   4.000000E-01   4.000000E-01   4.000000E-01   4.000000E-01   4.000000E-01   4.000000E-01   4.000000E-01   4.000000E-01   4.000000E-01   4.000000E-01   4.000000E-01   4.000000E-01   4.000000E-01   4.000000E-01   4.000000E-01   4.000000E-01   4.000000E-01   4.000000E-01   4.000000E-01   4.000000E-01   4.000000E-01   4.000000E-01   4.000000E-01   4.000000E-01   4.000000E-01   4.000000E-01   4.000000E-01   4.000000E-01   4.000000E-01   4.000000E-01   4.000000E-01   4.000000E-01   4.000000E-01   4.000000E-01   4.000000E-01   4.000000E-01   4.000000E-01   4.000000E-01   4.000000E-01   4.000000E-01   4.000000E-01   4.000000E-01   4.000000E-01   4.000000E-01   4.000000E-01   4.000000E-01   4.000000E-01   4.000000E-01   4.000000E-01   4.000000E-01   4.000000E-01   4.000000E-01   4.000000E-01   4.000000E-01   4.000000E-01   4.000000E-01   4.000000E-01   4.000000E-01   4.000000E-01   4.000000E-01   4.000000E-01   4.000000E-01   4.000000E-01   4.000000E-01   4.000000E-01   4.000000E-01   4.000000E-01   4.000000E-01   4.000000E-01   4.000000E-01   4.000000E-01   4.000000E-01   4.000000E-01   4.000000E-01   4.000000E-01   4.000000E-01   4.000000E-01   4.000000E-01   4.000000E-01   4.000000E-01   4.000000E-01   4.000000E-01   4.000000E-01   4.000000E-01   4.000000E-01   4.000000E-01   4.000000E-01   4.000000E-01   4.000000E-01   4.000000E-01   4.000000E-01   4.000000E-01   4.000000E-01   4.000000E-01   4.000000E-01   4.000000E-01   4.000000E-01   4.000000E-01   4.000000E-01   4.000000E-01   4.000000E-01   4.000000E-01   4.000000E-01   4.000000E-01   4.000000E-01   4.000000E-01   4.000000E-01   4.000000E-01   4.000000E-01   4.000000E-01   4.000000E-01   4.000000E-01   4.000000E-01   4.000000E-01   4.000000E-01   4.000000E-01   4.000000E-01   4.000000E-01   4.000000E-01   4.000000E-01   4.000000E-01   4.000000E-01   4.000000E-01   4.000000E-01   4.000000E-01   4.000000E-01   4.000000E-01   4.000000E-01   4.000000E-01   4.000000E-01   4.000000E-01   4.000000E-01   4.000000E-01   4.000000E-01   4.000000E-01   4.000000E-01   4.000000E-01   4.000000E-01   4.000000E-01   4.000000E-01   4.000000E-01   4.000000E-01   4.000000E-01   4.000000E-01   4.000000E-01   4.000000E-01   4.000000E-01   4.000000E-01   4.000000E-01   4.000000E-01   4.000000E-01   4.000000E-01   4.000000E-01   4.000000E-01   4.000000E-01   4.000000E-01   4.000000E-01   4.000000E-01   4.000000E-01   4.000000E-01   4.000000E-01   4.000000E-01   4.000000E-01   4.000000E-01   4.000000E-01   4.000000E-01   4.000000E-01   4.000000E-01   4.000000E-01   4.000000E-01   4.000000E-01   4.000000E-01   4.000000E-01   4.000000E-01   4.000000E-01   4.000000E-01   4.000000E-01   4.000000E-01   4.000000E-01   4.000000E-01   4.000000E-01   4.000000E-01   4.000000E-01   4.000000E-01   4.000000E-01   4.000000E-01   4.000000E-01   4.000000E-01   4.000000E-01   4.000000E-01   4.000000E-01   4.000000E-01   4.000000E-01   4.000000E-01   4.000000E-01   4.000000E-01   4.000000E-01   4.000000E-01   4.000000E-01   4.000000E-01   4.000000E-01   4.000000E-01   4.000000E-01   4.000000E-01   4.000000E-01   4.000000E-01   4.000000E-01   4.000000E-01   4.000000E-01   4.000000E-01   4.000000E-01   4.000000E-01   4.000000E-01   4.000000E-01   4.000000E-01   4.000000E-01   4.000000E-01   4.000000E-01   4.000000E-01   4.000000E-01   4.000000E-01   4.000000E-01   4.000000E-01   4.000000E-01   4.000000E-01   4.000000E-01   4.000000E-01   4.000000E-01   4.000000E-01   4.000000E-01   4.000000E-01   4.000000E-01   4.000000E-01   4.000000E-01   4.000000E-01   4.000000E-01   4.000000E-01   4.000000E-01   4.000000E-01   4.000000E-01   4.000000E-01   4.000000E-01   4.000000E-01   4.000000E-01   4.000000E-01   4.000000E-01   4.000000E-01   4.000000E-01   4.000000E-01   4.000000E-01   4.000000E-01   4.000000E-01   4.000000E-01   4.000000E-01   4.000000E-01   4.000000E-01   4.000000E-01   4.000000E-01   4.000000E-01   4.000000E-01   4.000000E-01   4.000000E-01   4.000000E-01   4.000000E-01   4.000000E-01   4.000000E-01   4.000000E-01   4.000000E-01   4.000000E-01   4.000000E-01   4.000000E-01   4.000000E-01   4.000000E-01   4.000000E-01   4.000000E-01   4.000000E-01   4.000000E-01   4.000000E-01   4.000000E-01   4.000000E-01   4.000000E-01   4.000000E-01   4.000000E-01   4.000000E-01   4.000000E-01   4.000000E-01   4.000000E-01   4.000000E-01   4.000000E-01   4.000000E-01   4.000000E-01   4.000000E-01   4.000000E-01   4.000000E-01   4.000000E-01   4.000000E-01   4.000000E-01   4.000000E-01   4.000000E-01   4.000000E-01   4.000000E-01   4.000000E-01   4.000000E-01   4.000000E-01   4.000000E-01   4.000000E-01   4.000000E-01   4.000000E-01   4.000000E-01   4.000000E-01   4.000000E-01   4.000000E-01   4.000000E-01   4.000000E-01   4.000000E-01   