<?xml version="1.0"?>
<!-- Time =  3.0065029269476834E-01s -->
<VTKFile type="PolyData" version="0.1" byte_order="LittleEndian">
<PolyData>
<Piece NumberOfPoints="0000002400" NumberOfVerts="0" NumberOfLines="0" NumberOfStrips="0" NumberOfPolys="0">
<Points>
<DataArray type="Float32" Name="Position" NumberOfComponents="3" format="ascii">
  9.426346E-01   1.957908E-01   0.000000E+00   1.643900E+00   1.949330E-01   0.000000E+00   2.338566E+00   1.963421E-01   0.000000E+00   3.539980E+00   1.983667E-01   0.000000E+00   3.940152E+00   1.990577E-01   0.000000E+00   4.758162E+00   1.992568E-01   0.000000E+00   5.159171E+00   2.005397E-01   0.000000E+00   5.560308E+00   2.004040E-01   0.000000E+00   6.300609E+00   2.004452E-01   0.000000E+00   7.830416E+00   4.132898E+00   0.000000E+00   7.481785E+00   6.787745E+00   0.000000E+00   6.287666E+00   5.959833E+00   0.000000E+00   4.024205E+00   9.544399E+00   0.000000E+00   5.052358E+00   8.783152E+00   0.000000E+00   1.995842E-01   1.993295E-01   0.000000E+00   1.293356E+00   3.850222E-01   0.000000E+00   1.990764E+00   3.918934E-01   0.000000E+00   3.134538E+00   1.997273E-01   0.000000E+00   3.738585E+00   5.445565E-01   0.000000E+00   4.356718E+00   1.984498E-01   0.000000E+00   4.957262E+00   5.455850E-01   0.000000E+00   5.359590E+00   5.465189E-01   0.000000E+00   5.931405E+00   3.561176E-01   0.000000E+00   7.309095E+00   1.868224E+00   0.000000E+00   6.801650E+00   8.110000E+00   0.000000E+00   7.412646E+00   1.385194E+01   0.000000E+00   3.894655E+00   1.088773E+01   0.000000E+00   5.288573E+00   7.901961E+00   0.000000E+00   5.836608E+00   1.457933E+01   0.000000E+00   5.719061E-01   3.447779E-01   0.000000E+00   1.641325E+00   5.918445E-01   0.000000E+00   2.736326E+00   2.324210E-01   0.000000E+00   3.338824E+00   5.428799E-01   0.000000E+00   4.149407E+00   5.394901E-01   0.000000E+00   4.557105E+00   5.441552E-01   0.000000E+00   5.155127E+00   8.926792E-01   0.000000E+00   5.729867E+00   7.022614E-01   0.000000E+00   6.735502E+00   7.360294E-01   0.000000E+00   7.003625E+00   3.852992E+00   0.000000E+00   7.913494E+00   1.158713E+01   0.000000E+00   5.770648E+00   1.289087E+01   0.000000E+00   6.585389E+00   1.300446E+01   0.000000E+00   5.074946E+00   1.252919E+01   0.000000E+00   7.502653E+00   1.451617E+01   0.000000E+00   6.650403E+00   1.434906E+01   0.000000E+00   4.001713E+00   1.158157E+01   0.000000E+00   1.992652E-01   5.987902E-01   0.000000E+00   9.403081E-01   5.925322E-01   0.000000E+00   1.291183E+00   7.839931E-01   0.000000E+00   2.344853E+00   5.941110E-01   0.000000E+00   2.742805E+00   6.322309E-01   0.000000E+00   3.535918E+00   8.899129E-01   0.000000E+00   4.349552E+00   8.857499E-01   0.000000E+00   4.755152E+00   8.910310E-01   0.000000E+00   5.524955E+00   1.045241E+00   0.000000E+00   6.294993E+00   6.013969E-01   0.000000E+00   6.835062E+00   1.525629E+00   0.000000E+00   7.031466E+00   5.818122E+00   0.000000E+00   7.221970E+00   7.255074E+00   0.000000E+00   6.808867E+00   1.153983E+01   0.000000E+00   5.579703E+00   1.166240E+01   0.000000E+00   7.414135E+00   1.039423E+01   0.000000E+00   5.711219E-01   7.445245E-01   0.000000E+00   9.418207E-01   9.899173E-01   0.000000E+00   1.987562E+00   7.910115E-01   0.000000E+00   2.332868E+00   9.922835E-01   0.000000E+00   3.081031E+00   8.470926E-01   0.000000E+00   3.947990E+00   8.844021E-01   0.000000E+00   4.547837E+00   1.232982E+00   0.000000E+00   4.952594E+00   1.238453E+00   0.000000E+00   6.066410E+00   9.295673E-01   0.000000E+00   6.463190E+00   1.027494E+00   0.000000E+00   7.043805E+00   4.490405E+00   0.000000E+00   7.372795E+00   7.624432E+00   0.000000E+00   7.634973E+00   9.948541E+00   0.000000E+00   6.970000E+00   1.097058E+01   0.000000E+00   4.584311E+00   1.397829E+01   0.000000E+00   7.792820E+00   9.317141E+00   0.000000E+00   2.003705E-01   9.981430E-01   0.000000E+00   5.728306E-01   1.144318E+00   0.000000E+00   1.640789E+00   9.898438E-01   0.000000E+00   1.986606E+00   1.190119E+00   0.000000E+00   2.729586E+00   1.036579E+00   0.000000E+00   3.745776E+00   1.228893E+00   0.000000E+00   4.147542E+00   1.230435E+00   0.000000E+00   4.745038E+00   1.580570E+00   0.000000E+00   5.852802E+00   1.275582E+00   0.000000E+00   6.249890E+00   1.372564E+00   0.000000E+00   6.511912E+00   1.770559E+00   0.000000E+00   6.655396E+00   4.562031E+00   0.000000E+00   6.138633E+00   6.333239E+00   0.000000E+00   5.988518E+00   1.399407E+01   0.000000E+00   1.999142E-01   1.396941E+00   0.000000E+00   1.291353E+00   1.182981E+00   0.000000E+00   1.639906E+00   1.388372E+00   0.000000E+00   2.334572E+00   1.391092E+00   0.000000E+00   3.084280E+00   1.246457E+00   0.000000E+00   3.453067E+00   1.501455E+00   0.000000E+00   4.343611E+00   1.577345E+00   0.000000E+00   5.322446E+00   1.389711E+00   0.000000E+00   6.119380E+00   1.755882E+00   0.000000E+00   6.410655E+00   2.157957E+00   0.000000E+00   6.517771E+00   3.351793E+00   0.000000E+00   6.093148E+00   4.475818E+00   0.000000E+00   6.590303E+00   1.212787E+01   0.000000E+00   7.395184E+00   1.492447E+01   0.000000E+00   6.740317E+00   9.821685E+00   0.000000E+00   5.719169E-01   1.544560E+00   0.000000E+00   9.399289E-01   1.387920E+00   0.000000E+00   1.289850E+00   1.581386E+00   0.000000E+00   1.986116E+00   1.588681E+00   0.000000E+00   2.731957E+00   1.436254E+00   0.000000E+00   3.079988E+00   1.645720E+00   0.000000E+00   3.944000E+00   1.574623E+00   0.000000E+00   5.114997E+00   1.731540E+00   0.000000E+00   5.647761E+00   1.622343E+00   0.000000E+00   6.068892E+00   2.367164E+00   0.000000E+00   6.440571E+00   3.760509E+00   0.000000E+00   6.812727E+00   7.080661E+00   0.000000E+00   6.877270E+00   8.550014E+00   0.000000E+00   6.052483E+00   1.338420E+01   0.000000E+00   4.829135E+00   1.180002E+01   0.000000E+00   5.818916E+00   8.951329E+00   0.000000E+00   5.168644E+00   1.331760E+01   0.000000E+00   1.994591E-01   1.795092E+00   0.000000E+00   9.377346E-01   1.785742E+00   0.000000E+00   1.638707E+00   1.786442E+00   0.000000E+00   2.332072E+00   1.789078E+00   0.000000E+00   2.728777E+00   1.836430E+00   0.000000E+00   3.653030E+00   1.847225E+00   0.000000E+00   4.520840E+00   1.934946E+00   0.000000E+00   5.422701E+00   1.987096E+00   0.000000E+00   5.821716E+00   2.022034E+00   0.000000E+00   5.927675E+00   2.777468E+00   0.000000E+00   5.965904E+00   3.236048E+00   0.000000E+00   6.467063E+00   5.088678E+00   0.000000E+00   7.179304E+00   9.029677E+00   0.000000E+00   6.330859E+00   1.251951E+01   0.000000E+00   6.329588E+00   8.261662E+00   0.000000E+00   7.665966E+00   7.311212E+00   0.000000E+00   1.990275E-01   2.192757E+00   0.000000E+00   5.704598E-01   1.943425E+00   0.000000E+00   1.287689E+00   1.979489E+00   0.000000E+00   1.985187E+00   1.987860E+00   0.000000E+00   2.335306E+00   2.187126E+00   0.000000E+00   3.174843E+00   2.033395E+00   0.000000E+00   4.040171E+00   1.962339E+00   0.000000E+00   4.897936E+00   2.066895E+00   0.000000E+00   5.597563E+00   2.353635E+00   0.000000E+00   5.197391E+00   2.329815E+00   0.000000E+00   5.377047E+00   2.686006E+00   0.000000E+00   6.351005E+00   4.156856E+00   0.000000E+00   6.014924E+00   4.906126E+00   0.000000E+00   6.005963E+00   6.934791E+00   0.000000E+00   6.390309E+00   1.133117E+01   0.000000E+00   4.204300E+00   1.117376E+01   0.000000E+00   2.001094E-01   2.590278E+00   0.000000E+00   5.700914E-01   2.342042E+00   0.000000E+00   1.637423E+00   2.184859E+00   0.000000E+00   1.987834E+00   2.386549E+00   0.000000E+00   2.733186E+00   2.235768E+00   0.000000E+00   3.086371E+00   2.422361E+00   0.000000E+00   3.525768E+00   2.224318E+00   0.000000E+00   4.298012E+00   2.267224E+00   0.000000E+00   4.676173E+00   2.401283E+00   0.000000E+00   4.959947E+00   2.685345E+00   0.000000E+00   5.605095E+00   3.023740E+00   0.000000E+00   5.653746E+00   5.106233E+00   0.000000E+00   6.426757E+00   8.756133E+00   0.000000E+00   6.251231E+00   7.663442E+00   0.000000E+00   5.889139E+00   9.490130E+00   0.000000E+00   4.546958E+00   1.210699E+01   0.000000E+00   2.040578E-01   2.988370E+00   0.000000E+00   5.712436E-01   2.740896E+00   0.000000E+00   9.372787E-01   2.184182E+00   0.000000E+00   1.287315E+00   2.377384E+00   0.000000E+00   2.343477E+00   2.585377E+00   0.000000E+00   2.741236E+00   2.635219E+00   0.000000E+00   3.437690E+00   2.612730E+00   0.000000E+00   3.902949E+00   2.372303E+00   0.000000E+00   4.194708E+00   2.653225E+00   0.000000E+00   4.572768E+00   2.787856E+00   0.000000E+00   5.184320E+00   3.035666E+00   0.000000E+00   5.798693E+00   3.602744E+00   0.000000E+00   6.658413E+00   7.514379E+00   0.000000E+00   5.784320E+00   5.960200E+00   0.000000E+00   4.247265E+00   9.921593E+00   0.000000E+00   5.788794E+00   7.852765E+00   0.000000E+00   6.408101E+00   1.080799E+01   0.000000E+00   2.001325E-01   3.387759E+00   0.000000E+00   5.743029E-01   3.139525E+00   0.000000E+00   9.386442E-01   2.582957E+00   0.000000E+00   1.639550E+00   2.583370E+00   0.000000E+00   1.992451E+00   2.784879E+00   0.000000E+00   3.097156E+00   2.821857E+00   0.000000E+00   3.809161E+00   2.767112E+00   0.000000E+00   4.206269E+00   3.052585E+00   0.000000E+00   4.283250E+00   3.446674E+00   0.000000E+00   4.670021E+00   3.176869E+00   0.000000E+00   5.409378E+00   3.388615E+00   0.000000E+00   6.038896E+00   5.504235E+00   0.000000E+00   5.422029E+00   3.803235E+00   0.000000E+00   5.827087E+00   7.337795E+00   0.000000E+00   5.546392E+00   5.495344E+00   0.000000E+00   7.420899E+00   5.962896E+00   0.000000E+00   7.354314E+00   5.409183E+00   0.000000E+00   2.078714E-01   3.787702E+00   0.000000E+00   5.773556E-01   3.538901E+00   0.000000E+00   9.422169E-01   2.982017E+00   0.000000E+00   1.288906E+00   2.775421E+00   0.000000E+00   1.644381E+00   2.982361E+00   0.000000E+00   2.359953E+00   2.983972E+00   0.000000E+00   3.452908E+00   3.011401E+00   0.000000E+00   3.823245E+00   3.168995E+00   0.000000E+00   3.113226E+00   3.221408E+00  
[...]
<PointData Scalars="Diameter" Vectors="Velocity">
<DataArray type="Float32" Name="Diameter" format="ascii">
  4.000000E-01   4.000000E-01   4.000000E-01   4.000000E-01   4.000000E-01   4.000000E-01   4.000000E-01   4.000000E-01   4.000000E-01   4.000000E-01   4.000000E-01   4.000000E-01   4.000000E-01   4.000000E-01   4.000000E-01   4.000000E-01   4.000000E-01   4.000000E-01   4.000000E-01   4.000000E-01   4.000000E-01   4.000000E-01   4.000000E-01   4.000000E-01   4.000000E-01   4.000000E-01   4.000000E-01   4.000000E-01   4.000000E-01   4.000000E-01   4.000000E-01   4.000000E-01   4.000000E-01   4.000000E-01   4.000000E-01   4.000000E-01   4.000000E-01   4.000000E-01   4.000000E-01   4.000000E-01   4.000000E-01   4.000000E-01   4.000000E-01   4.000000E-01   4.000000E-01   4.000000E-01   4.000000E-01   4.000000E-01   4.000000E-01   4.000000E-01   4.000000E-01   4.000000E-01   4.000000E-01   4.000000E-01   4.000000E-01   4.000000E-01   4.000000E-01   4.000000E-01   4.000000E-01   4.000000E-01   4.000000E-01   4.000000E-01   4.000000E-01   4.000000E-01   4.000000E-01   4.000000E-01   4.000000E-01   4.000000E-01   4.000000E-01   4.000000E-01   4.000000E-01   4.000000E-01   4.000000E-01   4.000000E-01   4.000000E-01   4.000000E-01   4.000000E-01   4.000000E-01   4.000000E-01   4.000000E-01   4.000000E-01   4.000000E-01   4.000000E-01   4.000000E-01   4.000000E-01   4.000000E-01   4.000000E-01   4.000000E-01   4.000000E-01   4.000000E-01   4.000000E-01   4.000000E-01   4.000000E-01   4.000000E-01   4.000000E-01   4.000000E-01   4.000000E-01   4.000000E-01   4.000000E-01   4.000000E-01   4.000000E-01   4.000000E-01   4.000000E-01   4.000000E-01   4.000000E-01   4.000000E-01   4.000000E-01   4.000000E-01   4.000000E-01   4.000000E-01   4.000000E-01   4.000000E-01   4.000000E-01   4.000000E-01   4.000000E-01   4.000000E-01   4.000000E-01   4.000000E-01   4.000000E-01   4.000000E-01   4.000000E-01   4.000000E-01   4.000000E-01   4.000000E-01   4.000000E-01   4.000000E-01   4.000000E-01   4.000000E-01   4.000000E-01   4.000000E-01   4.000000E-01   4.000000E-01   4.000000E-01   4.000000E-01   4.000000E-01   4.000000E-01   4.000000E-01   4.000000E-01   4.000000E-01   4.000000E-01   4.000000E-01   4.000000E-01   4.000000E-01   4.000000E-01   4.000000E-01   4.000000E-01   4.000000E-01   4.000000E-01   4.000000E-01   4.000000E-01   4.000000E-01   4.000000E-01   4.000000E-01   4.000000E-01   4.000000E-01   4.000000E-01   4.000000E-01   4.000000E-01   4.000000E-01   4.000000E-01   4.000000E-01   4.000000E-01   4.000000E-01   4.000000E-01   4.000000E-01   4.000000E-01   4.000000E-01   4.000000E-01   4.000000E-01   4.000000E-01   4.000000E-01   4.000000E-01   4.000000E-01   4.000000E-01   4.000000E-01   4.000000E-01   4.000000E-01   4.000000E-01   4.000000E-01   4.000000E-01   4.000000E-01   4.000000E-01   4.000000E-01   4.000000E-01   4.000000E-01   4.000000E-01   4.000000E-01   4.000000E-01   4.000000E-01   4.000000E-01   4.000000E-01   4.000000E-01   4.000000E-01   4.000000E-01   4.000000E-01   4.000000E-01   4.000000E-01   4.000000E-01   4.000000E-01   4.000000E-01   4.000000E-01   4.000000E-01   4.000000E-01   4.000000E-01   4.000000E-01   4.000000E-01   4.000000E-01   4.000000E-01   4.000000E-01   4.000000E-01   4.000000E-01   4.000000E-01   4.000000E-01   4.000000E-01   4.000000E-01   4.000000E-01   4.000000E-01   4.000000E-01   4.000000E-01   4.000000E-01   4.000000E-01   4.000000E-01   4.000000E-01   4.000000E-01   4.000000E-01   4.000000E-01   4.000000E-01   4.000000E-01   4.000000E-01   4.000000E-01   4.000000E-01   4.000000E-01   4.000000E-01   4.000000E-01   4.000000E-01   4.000000E-01   4.000000E-01   4.000000E-01   4.000000E-01   4.000000E-01   4.000000E-01   4.000000E-01   4.000000E-01   4.000000E-01   4.000000E-01   4.000000E-01   4.000000E-01   4.000000E-01   4.000000E-01   4.000000E-01   4.000000E-01   4.000000E-01   4.000000E-01   4.000000E-01   4.000000E-01   4.000000E-01   4.000000E-01   4.000000E-01   4.000000E-01   4.000000E-01   4.000000E-01   4.000000E-01   4.000000E-01   4.000000E-01   4.000000E-01   4.000000E-01   4.000000E-01   4.000000E-01   4.000000E-01   4.000000E-01   4.000000E-01   4.000000E-01   4.000000E-01   4.000000E-01   4.000000E-01   4.000000E-01   4.000000E-01   4.000000E-01   4.000000E-01   4.000000E-01   4.000000E-01   4.000000E-01   4.000000E-01   4.000000E-01   4.000000E-01   4.000000E-01   4.000000E-01   4.000000E-01   4.000000E-01   4.000000E-01   4.000000E-01   4.000000E-01   4.000000E-01   4.000000E-01   4.000000E-01   4.000000E-01   4.000000E-01   4.000000E-01   4.000000E-01   4.000000E-01   4.000000E-01   4.000000E-01   4.000000E-01   4.000000E-01   4.000000E-01   4.000000E-01   4.000000E-01   4.000000E-01   4.000000E-01   4.000000E-01   4.000000E-01   4.000000E-01   4.000000E-01   4.000000E-01   4.000000E-01   4.000000E-01   4.000000E-01   4.000000E-01   4.000000E-01   4.000000E-01   4.000000E-01   4.000000E-01   4.000000E-01   4.000000E-01   4.000000E-01   4.000000E-01   4.000000E-01   4.000000E-01   4.000000E-01   4.000000E-01   4.000000E-01   4.000000E-01   4.000000E-01   4.000000E-01   4.000000E-01   4.000000E-01   4.000000E-01   4.000000E-01   4.000000E-01   4.000000E-01   4.000000E-01   4.000000E-01   4.000000E-01   4.000000E-01   4.000000E-01   4.000000E-01   4.000000E-01   4.000000E-01   4.000000E-01   4.000000E-01   4.000000E-01   4.000000E-01   4.000000E-01   4.000000E-01   4.000000E-01   4.000000E-01   4.000000E-01   4.000000E-01   4.000000E-01   4.000000E-01   4.000000E-01   4.000000E-01   4.000000E-01   4.000000E-01   4.000000E-01   4.000000E-01   4.000000E-01   4.000000E-01   4.000000E-01   4.000000E-01   4.000000E-01   4.000000E-01   4.000000E-01   4.000000E-01   4.000000E-01   4.000000E-01   4.000000E-01   4.000000E-01   4.000000E-01   4.000000E-01   4.000000E-01   4.000000E-01   4.000000E-01   4.000000E-01   4.000000E-01   4.000000E-01   4.000000E-01   4.000000E-01   4.000000E-01   4.000000E-01   4.000000E-01   4.000000E-01   4.000000E-01   4.000000E-01   4.000000E-01   4.000000E-01   4.000000E-01   4.000000E-01   4.000000E-01   4.000000E-01   4.000000E-01   4.000000E-01   4.000000E-01   4.000000E-01   4.000000E-01   4.000000E-01   4.000000E-01   4.000000E-01   4.000000E-01   4.000000E-01   4.000000E-01   4.000000E-01   4.000000E-01   4.000000E-01   4.000000E-01   4.000000E-01   4.000000E-01   4.000000E-01   4.000000E-01   4.000000E-01   4.000000E-01   4.000000E-01   4.000000E-01   4.000000E-01   4.000000E-01   4.000000E-01   4.000000E-01   4.000000E-01   4.000000E-01   4.000000E-01   4.000000E-01   4.000000E-01   4.000000E-01   4.000000E-01   4.000000E-01   4.000000E-01   4.000000E-01   4.000000E-01   4.000000E-01   4.000000E-01   4.000000E-01   4.000000E-01   4.000000E-01   4.000000E-01   4.000000E-01   4.000000E-01   4.000000E-01   4.000000E-01   4.000000E-01   4.000000E-01   4.000000E-01   4.000000E-01   4.000000E-01   4.000000E-01   4.000000E-01   4.000000E-01   4.000000E-01   4.000000E-01   4.000000E-01   4.000000E-01   4.000000E-01   4.000000E-01   4.000000E-01   4.000000E-01   4.000000E-01   4.000000E-01   4.000000E-01   4.000000E-01   4.000000E-01   4.000000E-01   4.000000E-01   4.000000E-01   4.000000E-01   4.000000E-01   4.000000E-01   4.000000E-01   4.000000E-01   4.000000E-01   4.000000E-01   4.000000E-01   4.000000E-01   4.000000E-01   4.000000E-01   4.000000E-01   4.000000E-01   4.000000E-01   4.000000E-01   4.000000E-01   4.000000E-01   4.000000E-01   4.000000E-01   4.000000E-01   4.000000E-01   4.000000E-01   4.000000E-01   4.000000E-01   4.000000E-01   4.000000E-01   4.000000E-01   4.000000E-01   4.000000E-01   4.000000E-01   4.000000E-01   4.000000E-01   4.000000E-01   4.000000E-01   4.000000E-01   4.000000E-01   4.000000E-01   4.000000E-01   4.000000E-01   4.000000E-01   4.000000E-01   4.000000E-01   4.000000E-01   4.000000E-01   4.000000E-01   4.000000E-01   4.000000E-01   4.000000E-01   4.000000E-01   4.000000E-01   4.000000E-01   4.000000E-01   4.000000E-01   4.000000E-01   4.000000E-01   4.000000E-01   4.000000E-01   4.000000E-01   4.000000E-01   4.000000E-01   4.000000E-01   4.000000E-01   4.000000E-01   4.000000E-01   4.000000E-01   4.000000E-01   4.000000E-01   4.000000E-01   4.000000E-01   4.000000E-01   4.000000E-01   4.000000E-01   4.000000E-01   4.000000E-01   4.000000E-01   4.000000E-01   4.000000E-01   4.000000E-01   4.000000E-01   4.000000E-01   4.000000E-01   4.000000E-01   4.000000E-01   4.000000E-01   4.000000E-01   4.000000E-01   4.000000E-01   4.000000E-01   4.000000E-01   4.000000E-01   4.000000E-01   4.000000E-01   4.000000E-01   4.000000E-01   4.000000E-01   4.000000E-01   4.000000E-01   4.000000E-01   4.000000E-01   4.000000E-01   4.000000E-01   4.000000E-01   4.000000E-01   4.000000E-01   4.000000E-01   4.000000E-01   4.000000E-01   4.000000E-01   4.000000E-01   4.000000E-01   4.000000E-01   4.000000E-01   4.000000E-01   4.000000E-01   4.000000E-01   4.000000E-01   4.000000E-01   4.000000E-01   4.000000E-01   4.000000E-01   4.000000E-01   4.000000E-01   4.000000E-01   4.000000E-01   4.000000E-01   4.000000E-01   4.000000E-01   4.000000E-01   4.000000E-01   4.000000E-01   4.000000E-01   4.000000E-01   4.000000E-01   4.000000E-01   4.000000E-01   4.000000E-01   4.000000E-01   4.000000E-01   4.000000E-01   4.000000E-01   4.000000E-01   4.000000E-01   4.000000E-01   4.000000E-01   4.000000E-01   4.000000E-01   4.000000E-01   4.000000E-01   4.000000E-01   4.000000E-01   4.000000E-01   4.000000E-01   4.000000E-01   4.000000E-01   4.000000E-01   4.000000E-01   4.000000E-01   4.000000E-01   4.000000E-01   4.000000E-01   4.000000E-01   4.000000E-01   4.000000E-01   4.000000E-01   4.000000E-01   4.000000E-01   4.000000E-01   4.000000E-01   4.000000E-01   4.000000E-01   4.000000E-01   4.000000E-01   4.000000E-01   4.000000E-01   4.000000E-01   4.000000E-01   4.000000E-01   4.000000E-01   4.000000E-01   4.000000E-01   4.000000E-01   4.000000E-01   4.000000E-01   4.000000E-01   4.000000E-01   4.000000E-01   4.000000E-01   4.000000E-01   4.000000E-01   4.000000E-01   4.000000E-01   4.000000E-01   4.000000E-01   4.000000E-01   4.000000E-01   4.000000E-01   4.000000E-01   4.000000E-01   4.000000E-01   4.000000E-01   4.000000E-01   4.000000E-01   4.000000E-01   4.000000E-01   4.000000E-01   4.000000E-01   4.000000E-01   4.000000E-01   4.000000E-01   4.000000E-01   4.000000E-01   4.000000E-01   4.000000E-01   4.000000E-01   4.000000E-01   4.000000E-01   4.000000E-01   4.000000E-01   4.000000E-01   4.000000E-01   4.000000E-01   4.000000E-01   4.000000E-01   4.000000E-01   4.000000E-01   4.000000E-01   4.000000E-01   4.000000E-01   4.000000E-01   4.000000E-01   4.000000E-01   4.000000E-01   4.000000E-01   4.000000E-01   4.000000E-01   4.000000E-01   4.000000E-01   4.000000E-01   4.000000E-01   4.000000E-01   4.000000E-01   4.000000E-01   4.000000E-01   4.000000E-01   4.000000E-01   4.000000E-01   4.000000E-01   4.000000E-01   4.000000E-01   4.000000E-01   4.000000E-01   4.000000E-01   4.000000E-01   4.000000E-01   4.000000E-01   4.000000E-01   4.000000E-01   4.000000E-01   4.000000E-01   4.000000E-01   4.000000E-01   4.000000E-01   4.000000E-01   4.000000E-01   4.000000E-01   4.000000E-01   4.000000E-01   4.000000E-01   4.000000E-01   4.000000E-01   4.000000E-01   4.000000E-01   4.000000E-01   4.000000E-01   4.000000E-01   4.000000E-01   4.000000E-01   4.000000E-01   4.000000E-01   4.000000E-01   4.000000E-01   4.000000E-01   4.000000E-01   4.000000E-01   4.000000E-01   4.000000E-01   4.000000E-01   4.000000E-01   4.000000E-01   4.000000E-01   4.000000E-01   4.000000E-01   4.000000E-01   4.000000E-01   4.000000E-01   4.000000E-01   4.000000E-01   4.000000E-01   4.000000E-01   4.000000E-01   4.000000E-01   4.000000E-01   4.000000E-01   4.000000E-01   4.000000E-01   4.000000E-01   4.000000E-01   4.000000E-01   4.000000E-01   4.000000E-01   4.000000E-01   4.000000E-01   4.000000E-01   4.000000E-01   4.000000E-01   4.000000E-01   4.000000E-01   4.000000E-01   4.000000E-01   4.000000E-01   4.000000E-01   4.000000E-01   4.000000E-01   4.000000E-01   4.000000E-01   4.000000E-01   4.000000E-01   4.000000E-01   4.000000E-01   4.000000E-01   4.000000E-01   4.000000E-01   4.000000E-01   4.000000E-01   4.000000E-01   4.000000E-01   4.000000E-01   4.000000E-01   4.000000E-01   4.000000E-01   4.000000E-01   4.000000E-01   4.000000E-01   4.000000E-01   4.000000E-01   4.000000E-01   4.000000E-01   4.000000E-01   4.000000E-01   4.000000E-01   4.000000E-01   4.000000E-01   4.000000E-01   4.000000E-01   4.000000E-01   4.000000E-01   4.000000E-01   4.000000E-01   4.000000E-01   4.000000E-01   4.000000E-01   4.000000E-01   4.000000E-01   4.000000E-01   4.000000E-01   4.000000E-01   4.000000E-01   4.000000E-01   4.000000E-01   4.000000E-01   4.000000E-01   4.000000E-01   4.000000E-01   4.000000E-01   4.000000E-01   4.000000E-01   4.000000E-01   4.000000E-01   4.000000E-01   4.000000E-01   4.000000E-01   4.000000E-01   4.000000E-01   4.000000E-01   4.000000E-01   4.000000E-01   4.000000E-01   4.000000E-01   4.000000E-01   4.000000E-01   4.000000E-01   4.000000E-01   4.000000E-01   4.000000E-01   4.000000E-01   4.000000E-01   4.000000E-01   4.000000E-01   4.000000E-01   4.000000E-01   4.000000E-01   4.000000E-01   4.000000E-01   4.000000E-01   4.000000E-01   4.000000E-01   4.000000E-01   4.000000E-01   4.000000E-01   4.000000E-01   4.000000E-01   4.000000E-01   4.000000E-01   4.000000E-01   4.000000E-01   4.000000E-01   4.000000E-01   4.000000E-01   4.000000E-01   4.000000E-01   4.000000E-01   4.000000E-01   4.000000E-01   4.000000E-01   4.000000E-01   4.000000E-01   4.000000E-01   4.000000E-01   4.000000E-01   4.000000E-01   4.000000E-01   4.000000E-01   4.000000E-01   4.000000E-01   4.000000E-01   4.000000E-01   4.000000E-01   4.000000E-01   4.000000E-01   4.000000E-01   4.000000E-01   4.000000E-01   4.000000E-01   4.000000E-01   4.000000E-01   4.000000E-01   4.000000E-01   4.000000E-01   4.000000E-01   4.000000E-01   4.000000E-01   4.000000E-01   4.000000E-01   4.000000E-01   4.000000E-01   4.000000E-01   4.000000E-01   4.000000E-01   4.000000E-01   4.000000E-01   4.000000E-01   4.000000E-01   4.000000E-01   4.000000E-01   4.000000E-01   4.000000E-01   4.000000E-01   4.000000E-01   4.000000E-01   4.000000E-01   4.000000E-01   4.000000E-01   4.000000E-01   4.000000E-01   4.000000E-01   4.000000E-01   4.000000E-01   4.000000E-01   4.000000E-01   4.000000E-01   4.000000E-01   4.000000E-01   4.000000E-01   4.000000E-01   4.000000E-01   4.000000E-01   4.000000E-01   4.000000E-01   4.000000E-01   4.000000E-01   4.000000E-01   4.000000E-01   4.000000E-01   4.000000E-01   4.000000E-01   4.000000E-01   4.000000E-01   4.000000E-01   4.000000E-01   4.000000E-01   4.000000E-01   4.000000E-01   4.000000E-01   4.000000E-01   4.000000E-01   4.000000E-01   4.000000E-01   4.000000E-01   4.000000E-01   4.000000E-01   4.000000E-01   4.000000E-01   4.000000E-01   4.000000E-01   4.000000E-01   4.000000E-01   4.000000E-01   4.000000E-01   4.000000E-01   4.000000E-01   4.000000E-01   4.000000E-01   4.000000E-01   4.000000E-01   4.000000E-01   4.000000E-01   4.000000E-01   4.000000E-01   4.000000E-01   4.000000E-01   4.000000E-01   4.000000E-01   4.000000E-01   4.000000E-01   4.000000E-01   4.000000E-01   4.000000E-01   4.000000E-01   4.000000E-01   4.000000E-01   4.000000E-01   4.000000E-01   4.000000E-01   4.000000E-01   4.000000E-01   4.000000E-01   4.000000E-01   4.000000E-01   4.000000E-01   4.000000E-01   4.000000E-01   4.000000E-01   4.000000E-01   4.000000E-01   4.000000E-01   4.000000E-01   4.000000E-01   4.000000E-01   4.000000E-01   4.000000E-01   4.000000E-01   4.000000E-01   4.000000E-01   4.000000E-01   4.000000E-01   4.000000E-01   4.000000E-01   4.000000E-01   4.000000E-01   4.000000E-01   4.000000E-01   4.000000E-01   4.000000E-01   4.000000E-01   4.000000E-01   4.000000E-01   4.000000E-01   4.000000E-01   4.000000E-01   4.000000E-01   4.000000E-01   4.000000E-01   4.000000E-01   4.000000E-01   4.000000E-01   4.000000E-01   4.000000E-01   4.000000E-01   4.000000E-01   4.000000E-01   4.000000E-01   4.000000E-01   4.000000E-01   4.000000E-01   4.000000E-01   4.000000E-01   4.000000E-01   4.000000E-01   4.000000E-01   4.000000E-01   4.000000E-01   4.000000E-01   4.000000E-01   4.000000E-01   4.000000E-01   4.000000E-01   4.000000E-01   4.000000E-01   4.000000E-01   4.000000E-01   4.000000E-01   4.000000E-01   4.000000E-01   4.000000E-01   4.000000E-01   4.000000E-01   4.000000E-01   4.000000E-01   4.000000E-01   4.000000E-01   4.000000E-01   4.000000E-01   4.000000E-01   4.000000E-01   4.000000E-01   4.000000E-01   4.000000E-01   4.000000E-01   4.000000E-01   4.000000E-01   4.000000E-01   4.000000E-01   4.000000E-01   4.000000E-01   4.000000E-01   4.000000E-01   4.000000E-01   4.000000E-01   4.000000E-01   4.000000E-01   4.000000E-01   4.000000E-01   4.000000E-01   4.000000E-01   4.000000E-01   4.000000E-01   4.000000E-01   4.000000E-01   4.000000E-01   4.000000E-01   4.000000E-01   4.000000E-01   4.000000E-01   4.000000E-01   4.000000E-01   4.000000E-01   4.000000E-01   4.000000E-01   4.000000E-01   4.000000E-01   4.000000E-01   4.000000E-01   4.000000E-01   4.000000E-01   4.000000E-01   4.000000E-01   4.000000E-01   4.000000E-01   4.000000E-01   4.000000E-01   4.000000E-01   4.000000E-01   4.000000E-01   4.000000E-01   4.000000E-01   4.000000E-01   4.000000E-01   4.000000E-01   4.000000E-01   4.000000E-01   4.000000E-01   4.000000E-01   4.000000E-01   4.000000E-01   4.000000E-01   4.000000E-01   4.000000E-01   4.000000E-01   4.000000E-01   4.000000E-01   4.000000E-01   4.000000E-01   4.000000E-01   4.000000E-01   4.000000E-01   4.000000E-01   4.000000E-01   4.000000E-01   4.000000E-01   4.000000E-01   4.000000E-01   4.000000E-01   4.000000E-01   4.000000E-01   4.000000E-01   4.000000E-01   4.000000E-01   4.000000E-01   4.000000E-01   4.000000E-01   4.000000E-01   4.000000E-01   4.000000E-01   4.000000E-01   4.000000E-01   4.000000E-01   4.000000E-01   4.000000E-01   4.000000E-01   4.000000E-01   4.000000E-01   4.000000E-01   4.000000E-01   4.000000E-01   4.000000E-01   4.000000E-01   4.000000E-01   4.000000E-01   4.000000E-01   4.000000E-01   4.000000E-01   4.000000E-01   4.000000E-01   4.000000E-01   4.000000E-01   4.000000E-01   4.000000E-01   4.000000E-01   4.000000E-01   4.000000E-01   4.000000E-01   4.000000E-01   4.000000E-01   4.000000E-01   4.000000E-01   4.000000E-01   4.000000E-01   4.000000E-01   4.000000E-01   4.000000E-01   4.000000E-01   4.000000E-01   4.000000E-01   4.000000E-01   4.000000E-01   4.000000E-01   4.000000E-01   4.000000E-01   4.000000E-01   4.000000E-01   4.000000E-01   4.000000E-01   4.000000E-01   4.000000E-01   4.000000E-01   4.000000E-01   4.000000E-01   4.000000E-01   4.000000E-01   4.000000E-01   4.000000E-01   4.000000E-01   4.000000E-01   4.000000E-01   4.000000E-01   4.000000E-01   4.000000E-01   4.000000E-01   4.000000E-01   4.000000E-01   4.000000E-01   4.000000E-01   4.000000E-01   4.000000E-01   4.000000E-01   4.000000E-01   4.000000E-01   4.000000E-01   4.000000E-01   4.000000E-01   4.000000E-01   4.000000E-01   4.000000E-01   4.000000E-01   4.000000E-01   4.000000E-01   4.000000E-01   4.000000E-01   4.000000E-01   4.000000E-01   4.000000E-01   4.000000E-01   4.000000E-01   4.000000E-01   4.000000E-01   4.000000E-01   4.000000E-01   4.000000E-01   4.000000E-01   4.000000E-01   4.000000E-01   4.000000E-01   4.000000E-01   4.000000E-01   4.000000E-01   4.000000E-01   4.000000E-01   4.000000E-01   4.000000E-01   4.000000E-01   4.000000E-01   4.000000E-01   4.000000E-01   4.000000E-01   4.000000E-01   4.000000E-01   4.000000E-01   4.000000E-01   4.000000E-01   4.000000E-01   4.000000E-01   4.000000E-01   4.000000E-01   4.000000E-01   4.000000E-01   4.000000E-01   4.000000E-01   4.000000E-01   4.000000E-01   4.000000E-01   4.000000E-01   4.000000E-01   4.000000E-01   4.000000E-01   4.000000E-01   4.000000E-01   4.000000E-01   4.000000E-01   4.000000E-01   4.000000E-01   4.000000E-01   4.000000E-01   4.000000E-01   4.000000E-01   