<?xml version="1.0"?>
<!-- Time =  1.0055029269476763E-01s -->
<VTKFile type="PolyData" version="0.1" byte_order="LittleEndian">
<PolyData>
<Piece NumberOfPoints="0000002400" NumberOfVerts="0" NumberOfLines="0" NumberOfStrips="0" NumberOfPolys="0">
<Points>
<DataArray type="Float32" Name="Position" NumberOfComponents="3" format="ascii">
  5.986840E-01   1.985131E-01   0.000000E+00   1.070557E+00   1.990602E-01   0.000000E+00   1.470000E+00   1.971777E-01   0.000000E+00   2.000348E+00   1.982711E-01   0.000000E+00   2.403856E+00   1.961423E-01   0.000000E+00   2.901858E+00   1.982910E-01   0.000000E+00   3.323909E+00   1.983800E-01   0.000000E+00   3.736395E+00   1.986507E-01   0.000000E+00   4.137941E+00   1.983408E-01   0.000000E+00   4.873076E+00   2.008950E-01   0.000000E+00   5.340292E+00   2.005842E-01   0.000000E+00   5.744054E+00   1.990441E-01   0.000000E+00   6.496667E+00   2.063824E-01   0.000000E+00   6.990173E+00   4.060515E-01   0.000000E+00   7.273768E+00   1.689540E+00   0.000000E+00   5.546931E+00   5.200937E+00   0.000000E+00   1.993586E-01   1.991330E-01   0.000000E+00   8.339879E-01   5.202424E-01   0.000000E+00   1.273022E+00   5.437998E-01   0.000000E+00   1.734018E+00   4.954159E-01   0.000000E+00   2.204545E+00   5.405110E-01   0.000000E+00   2.651011E+00   5.081022E-01   0.000000E+00   3.113627E+00   5.374065E-01   0.000000E+00   3.530546E+00   5.406080E-01   0.000000E+00   3.937938E+00   5.437826E-01   0.000000E+00   4.504886E+00   3.565526E-01   0.000000E+00   5.109953E+00   5.269800E-01   0.000000E+00   5.542852E+00   5.460268E-01   0.000000E+00   6.096295E+00   4.145825E-01   0.000000E+00   6.631949E+00   6.001283E-01   0.000000E+00   6.834564E+00   1.069460E+00   0.000000E+00   6.338554E+00   2.023484E+00   0.000000E+00   3.993692E-01   5.446757E-01   0.000000E+00   1.035367E+00   8.641571E-01   0.000000E+00   1.537367E+00   8.432696E-01   0.000000E+00   1.938887E+00   8.370236E-01   0.000000E+00   2.450426E+00   8.526964E-01   0.000000E+00   2.861001E+00   8.468422E-01   0.000000E+00   3.319686E+00   8.800857E-01   0.000000E+00   3.732189E+00   8.859891E-01   0.000000E+00   4.301150E+00   7.093481E-01   0.000000E+00   4.740169E+00   6.796441E-01   0.000000E+00   5.309969E+00   8.718349E-01   0.000000E+00   5.886129E+00   7.527300E-01   0.000000E+00   5.638755E+00   1.097548E+00   0.000000E+00   6.282910E+00   8.695926E-01   0.000000E+00   6.147202E+00   1.569367E+00   0.000000E+00   7.348933E+00   6.359915E+00   0.000000E+00   2.001538E-01   8.914179E-01   0.000000E+00   6.350045E-01   8.665880E-01   0.000000E+00   9.950815E-01   1.260488E+00   0.000000E+00   1.425301E+00   1.226790E+00   0.000000E+00   1.832811E+00   1.220035E+00   0.000000E+00   2.249112E+00   1.196834E+00   0.000000E+00   2.658852E+00   1.191531E+00   0.000000E+00   3.065911E+00   1.189336E+00   0.000000E+00   3.521979E+00   1.225754E+00   0.000000E+00   4.095638E+00   1.054444E+00   0.000000E+00   4.542981E+00   1.027622E+00   0.000000E+00   4.942635E+00   1.026768E+00   0.000000E+00   5.194049E+00   1.340260E+00   0.000000E+00   5.725202E+00   1.490298E+00   0.000000E+00   6.030636E+00   1.176065E+00   0.000000E+00   5.585719E+00   4.221238E+00   0.000000E+00   1.987748E-01   1.291407E+00   0.000000E+00   5.964503E-01   1.263548E+00   0.000000E+00   1.234733E+00   1.577948E+00   0.000000E+00   1.635914E+00   1.566408E+00   0.000000E+00   2.059274E+00   1.547729E+00   0.000000E+00   2.459028E+00   1.537814E+00   0.000000E+00   2.862772E+00   1.533708E+00   0.000000E+00   3.267905E+00   1.533846E+00   0.000000E+00   3.857934E+00   1.442551E+00   0.000000E+00   4.339447E+00   1.371878E+00   0.000000E+00   4.744600E+00   1.373390E+00   0.000000E+00   4.960095E+00   1.713727E+00   0.000000E+00   5.096253E+00   2.090461E+00   0.000000E+00   5.368060E+00   1.711517E+00   0.000000E+00   5.883687E+00   3.278089E+00   0.000000E+00   2.010842E-01   1.691395E+00   0.000000E+00   5.997524E-01   1.662585E+00   0.000000E+00   9.489088E-01   1.857178E+00   0.000000E+00   1.444610E+00   1.915751E+00   0.000000E+00   1.863888E+00   1.894763E+00   0.000000E+00   2.265810E+00   1.888626E+00   0.000000E+00   2.664980E+00   1.880732E+00   0.000000E+00   3.065161E+00   1.876626E+00   0.000000E+00   3.599087E+00   1.757113E+00   0.000000E+00   4.144826E+00   1.720968E+00   0.000000E+00   4.544831E+00   1.718994E+00   0.000000E+00   4.593900E+00   2.114478E+00   0.000000E+00   4.839147E+00   2.431255E+00   0.000000E+00   5.408872E+00   2.344649E+00   0.000000E+00   5.825882E+00   1.873192E+00   0.000000E+00   5.328697E+00   4.647800E+00   0.000000E+00   2.064919E-01   2.098485E+00   0.000000E+00   6.055176E-01   2.061488E+00   0.000000E+00   1.161090E+00   2.195919E+00   0.000000E+00   1.670359E+00   2.242523E+00   0.000000E+00   2.070431E+00   2.236788E+00   0.000000E+00   2.469661E+00   2.232259E+00   0.000000E+00   2.869387E+00   2.223303E+00   0.000000E+00   3.358343E+00   2.144979E+00   0.000000E+00   3.760283E+00   2.122504E+00   0.000000E+00   4.167527E+00   2.118924E+00   0.000000E+00   4.384855E+00   2.454117E+00   0.000000E+00   4.627225E+00   2.771461E+00   0.000000E+00   5.165610E+00   2.664443E+00   0.000000E+00   5.837310E+00   2.273110E+00   0.000000E+00   5.175950E+00   4.176582E+00   0.000000E+00   1.981629E-01   2.639599E+00   0.000000E+00   5.512459E-01   2.456479E+00   0.000000E+00   9.428728E-01   2.529366E+00   0.000000E+00   1.390584E+00   2.525012E+00   0.000000E+00   1.873432E+00   2.584043E+00   0.000000E+00   2.274763E+00   2.581831E+00   0.000000E+00   2.678250E+00   2.572781E+00   0.000000E+00   3.160206E+00   2.496133E+00   0.000000E+00   3.563488E+00   2.484384E+00   0.000000E+00   3.962780E+00   2.464871E+00   0.000000E+00   4.183211E+00   2.797945E+00   0.000000E+00   4.421208E+00   3.118224E+00   0.000000E+00   4.938963E+00   3.021595E+00   0.000000E+00   5.400505E+00   2.991378E+00   0.000000E+00   5.759277E+00   2.750686E+00   0.000000E+00   6.185362E+00   5.667272E+00   0.000000E+00   1.983520E-01   3.038491E+00   0.000000E+00   6.700991E-01   2.848530E+00   0.000000E+00   1.170891E+00   2.856658E+00   0.000000E+00   1.593792E+00   2.869464E+00   0.000000E+00   2.069339E+00   2.929554E+00   0.000000E+00   2.485564E+00   2.921722E+00   0.000000E+00   2.956221E+00   2.859158E+00   0.000000E+00   3.366596E+00   2.837494E+00   0.000000E+00   3.776121E+00   2.821312E+00   0.000000E+00   3.999928E+00   3.152645E+00   0.000000E+00   4.053487E+00   3.549357E+00   0.000000E+00   4.463602E+00   3.515070E+00   0.000000E+00   4.869781E+00   3.417154E+00   0.000000E+00   5.357559E+00   3.409428E+00   0.000000E+00   5.173523E+00   5.450900E+00   0.000000E+00   1.995593E-01   3.437247E+00   0.000000E+00   5.444881E-01   3.236218E+00   0.000000E+00   9.384543E-01   3.179364E+00   0.000000E+00   1.370514E+00   3.201802E+00   0.000000E+00   1.792523E+00   3.217103E+00   0.000000E+00   2.282040E+00   3.264117E+00   0.000000E+00   2.757311E+00   3.216682E+00   0.000000E+00   3.172608E+00   3.195529E+00   0.000000E+00   3.582141E+00   3.173507E+00   0.000000E+00   3.641598E+00   3.568859E+00   0.000000E+00   3.762827E+00   3.950388E+00   0.000000E+00   4.161891E+00   3.934337E+00   0.000000E+00   4.560906E+00   3.905920E+00   0.000000E+00   4.963311E+00   3.838303E+00   0.000000E+00   4.893292E+00   4.634959E+00   0.000000E+00   6.252737E+00   6.256154E+00   0.000000E+00   2.092209E-01   3.835440E+00   0.000000E+00   5.821935E-01   3.633765E+00   0.000000E+00   1.134761E+00   3.525464E+00   0.000000E+00   1.567264E+00   3.548654E+00   0.000000E+00   1.997520E+00   3.561709E+00   0.000000E+00   2.419908E+00   3.635134E+00   0.000000E+00   2.838189E+00   3.614520E+00   0.000000E+00   3.240305E+00   3.589652E+00   0.000000E+00   3.365002E+00   3.969416E+00   0.000000E+00   3.525742E+00   4.353286E+00   0.000000E+00   3.933549E+00   4.311496E+00   0.000000E+00   4.334908E+00   4.294803E+00   0.000000E+00   4.739973E+00   4.266779E+00   0.000000E+00   4.646587E+00   5.040080E+00   0.000000E+00   5.733042E+00   5.892107E+00   0.000000E+00   2.003166E-01   4.234550E+00   0.000000E+00   5.543292E-01   4.036063E+00   0.000000E+00   9.139037E-01   3.860622E+00   0.000000E+00   1.325614E+00   3.874363E+00   0.000000E+00   1.769839E+00   3.892321E+00   0.000000E+00   2.166573E+00   3.943793E+00   0.000000E+00   2.568693E+00   4.002218E+00   0.000000E+00   2.967204E+00   3.996130E+00   0.000000E+00   3.123909E+00   4.382385E+00   0.000000E+00   3.264424E+00   4.758086E+00   0.000000E+00   3.674632E+00   4.730412E+00   0.000000E+00   4.072648E+00   4.685036E+00   0.000000E+00   4.485119E+00   4.667704E+00   0.000000E+00   4.763272E+00   5.459575E+00   0.000000E+00   5.086257E+00   4.998201E+00   0.000000E+00   6.562831E+00   6.524418E+00   0.000000E+00   1.999932E-01   4.633830E+00   0.000000E+00   5.563264E-01   4.438421E+00   0.000000E+00   9.469663E-01   4.270731E+00   0.000000E+00   1.526046E+00   4.217777E+00   0.000000E+00   1.923188E+00   4.261531E+00   0.000000E+00   2.318956E+00   4.313937E+00   0.000000E+00   2.722744E+00   4.368343E+00   0.000000E+00   2.865469E+00   4.740741E+00   0.000000E+00   3.016942E+00   5.110497E+00   0.000000E+00   3.415760E+00   5.133042E+00   0.000000E+00   3.833561E+00   5.097637E+00   0.000000E+00   4.237171E+00   5.047247E+00   0.000000E+00   4.509732E+00   5.846744E+00   0.000000E+00   5.333362E+00   5.848096E+00   0.000000E+00   6.172580E+00   6.688826E+00   0.000000E+00   7.936721E+00   6.830168E+00   0.000000E+00   1.984796E-01   5.054359E+00   0.000000E+00   5.389625E-01   4.843896E+00   0.000000E+00   9.149876E-01   4.710405E+00   0.000000E+00   1.266583E+00   4.521208E+00   0.000000E+00   1.663004E+00   4.592593E+00   0.000000E+00   2.072953E+00   4.631998E+00   0.000000E+00   2.469684E+00   4.683022E+00   0.000000E+00   2.616453E+00   5.054307E+00   0.000000E+00   2.755135E+00   5.429494E+00   0.000000E+00   3.158821E+00   5.483146E+00   0.000000E+00   3.572514E+00   5.499911E+00  
[...]
<PointData Scalars="Diameter" Vectors="Velocity">
<DataArray type="Float32" Name="Diameter" format="ascii">
  4.000000E-01   4.000000E-01   4.000000E-01   4.000000E-01   4.000000E-01   4.000000E-01   4.000000E-01   4.000000E-01   4.000000E-01   4.000000E-01   4.000000E-01   4.000000E-01   4.000000E-01   4.000000E-01   4.000000E-01   4.000000E-01   4.000000E-01   4.000000E-01   4.000000E-01   4.000000E-01   4.000000E-01   4.000000E-01   4.000000E-01   4.000000E-01   4.000000E-01   4.000000E-01   4.000000E-01   4.000000E-01   4.000000E-01   4.000000E-01   4.000000E-01   4.000000E-01   4.000000E-01   4.000000E-01   4.000000E-01   4.000000E-01   4.000000E-01   4.000000E-01   4.000000E-01   4.000000E-01   4.000000E-01   4.000000E-01   4.000000E-01   4.000000E-01   4.000000E-01   4.000000E-01   4.000000E-01   4.000000E-01   4.000000E-01   4.000000E-01   4.000000E-01   4.000000E-01   4.000000E-01   4.000000E-01   4.000000E-01   4.000000E-01   4.000000E-01   4.000000E-01   4.000000E-01   4.000000E-01   4.000000E-01   4.000000E-01   4.000000E-01   4.000000E-01   4.000000E-01   4.000000E-01   4.000000E-01   4.000000E-01   4.000000E-01   4.000000E-01   4.000000E-01   4.000000E-01   4.000000E-01   4.000000E-01   4.000000E-01   4.000000E-01   4.000000E-01   4.000000E-01   4.000000E-01   4.000000E-01   4.000000E-01   4.000000E-01   4.000000E-01   4.000000E-01   4.000000E-01   4.000000E-01   4.000000E-01   4.000000E-01   4.000000E-01   4.000000E-01   4.000000E-01   4.000000E-01   4.000000E-01   4.000000E-01   4.000000E-01   4.000000E-01   4.000000E-01   4.000000E-01   4.000000E-01   4.000000E-01   4.000000E-01   4.000000E-01   4.000000E-01   4.000000E-01   4.000000E-01   4.000000E-01   4.000000E-01   4.000000E-01   4.000000E-01   4.000000E-01   4.000000E-01   4.000000E-01   4.000000E-01   4.000000E-01   4.000000E-01   4.000000E-01   4.000000E-01   4.000000E-01   4.000000E-01   4.000000E-01   4.000000E-01   4.000000E-01   4.000000E-01   4.000000E-01   4.000000E-01   4.000000E-01   4.000000E-01   4.000000E-01   4.000000E-01   4.000000E-01   4.000000E-01   4.000000E-01   4.000000E-01   4.000000E-01   4.000000E-01   4.000000E-01   4.000000E-01   4.000000E-01   4.000000E-01   4.000000E-01   4.000000E-01   4.000000E-01   4.000000E-01   4.000000E-01   4.000000E-01   4.000000E-01   4.000000E-01   4.000000E-01   4.000000E-01   4.000000E-01   4.000000E-01   4.000000E-01   4.000000E-01   4.000000E-01   4.000000E-01   4.000000E-01   4.000000E-01   4.000000E-01   4.000000E-01   4.000000E-01   4.000000E-01   4.000000E-01   4.000000E-01   4.000000E-01   4.000000E-01   4.000000E-01   4.000000E-01   4.000000E-01   4.000000E-01   4.000000E-01   4.000000E-01   4.000000E-01   4.000000E-01   4.000000E-01   4.000000E-01   4.000000E-01   4.000000E-01   4.000000E-01   4.000000E-01   4.000000E-01   4.000000E-01   4.000000E-01   4.000000E-01   4.000000E-01   4.000000E-01   4.000000E-01   4.000000E-01   4.000000E-01   4.000000E-01   4.000000E-01   4.000000E-01   4.000000E-01   4.000000E-01   4.000000E-01   4.000000E-01   4.000000E-01   4.000000E-01   4.000000E-01   4.000000E-01   4.000000E-01   4.000000E-01   4.000000E-01   4.000000E-01   4.000000E-01   4.000000E-01   4.000000E-01   4.000000E-01   4.000000E-01   4.000000E-01   4.000000E-01   4.000000E-01   4.000000E-01   4.000000E-01   4.000000E-01   4.000000E-01   4.000000E-01   4.000000E-01   4.000000E-01   4.000000E-01   4.000000E-01   4.000000E-01   4.000000E-01   4.000000E-01   4.000000E-01   4.000000E-01   4.000000E-01   4.000000E-01   4.000000E-01   4.000000E-01   4.000000E-01   4.000000E-01   4.000000E-01   4.000000E-01   4.000000E-01   4.000000E-01   4.000000E-01   4.000000E-01   4.000000E-01   4.000000E-01   4.000000E-01   4.000000E-01   4.000000E-01   4.000000E-01   4.000000E-01   4.000000E-01   4.000000E-01   4.000000E-01   4.000000E-01   4.000000E-01   4.000000E-01   4.000000E-01   4.000000E-01   4.000000E-01   4.000000E-01   4.000000E-01   4.000000E-01   4.000000E-01   4.000000E-01   4.000000E-01   4.000000E-01   4.000000E-01   4.000000E-01   4.000000E-01   4.000000E-01   4.000000E-01   4.000000E-01   4.000000E-01   4.000000E-01   4.000000E-01   4.000000E-01   4.000000E-01   4.000000E-01   4.000000E-01   4.000000E-01   4.000000E-01   4.000000E-01   4.000000E-01   4.000000E-01   4.000000E-01   4.000000E-01   4.000000E-01   4.000000E-01   4.000000E-01   4.000000E-01   4.000000E-01   4.000000E-01   4.000000E-01   4.000000E-01   4.000000E-01   4.000000E-01   4.000000E-01   4.000000E-01   4.000000E-01   4.000000E-01   4.000000E-01   4.000000E-01   4.000000E-01   4.000000E-01   4.000000E-01   4.000000E-01   4.000000E-01   4.000000E-01   4.000000E-01   4.000000E-01   4.000000E-01   4.000000E-01   4.000000E-01   4.000000E-01   4.000000E-01   4.000000E-01   4.000000E-01   4.000000E-01   4.000000E-01   4.000000E-01   4.000000E-01   4.000000E-01   4.000000E-01   4.000000E-01   4.000000E-01   4.000000E-01   4.000000E-01   4.000000E-01   4.000000E-01   4.000000E-01   4.000000E-01   4.000000E-01   4.000000E-01   4.000000E-01   4.000000E-01   4.000000E-01   4.000000E-01   4.000000E-01   4.000000E-01   4.000000E-01   4.000000E-01   4.000000E-01   4.000000E-01   4.000000E-01   4.000000E-01   4.000000E-01   4.000000E-01   4.000000E-01   4.000000E-01   4.000000E-01   4.000000E-01   4.000000E-01   4.000000E-01   4.000000E-01   4.000000E-01   4.000000E-01   4.000000E-01   4.000000E-01   4.000000E-01   4.000000E-01   4.000000E-01   4.000000E-01   4.000000E-01   4.000000E-01   4.000000E-01   4.000000E-01   4.000000E-01   4.000000E-01   4.000000E-01   4.000000E-01   4.000000E-01   4.000000E-01   4.000000E-01   4.000000E-01   4.000000E-01   4.000000E-01   4.000000E-01   4.000000E-01   4.000000E-01   4.000000E-01   4.000000E-01   4.000000E-01   4.000000E-01   4.000000E-01   4.000000E-01   4.000000E-01   4.000000E-01   4.000000E-01   4.000000E-01   4.000000E-01   4.000000E-01   4.000000E-01   4.000000E-01   4.000000E-01   4.000000E-01   4.000000E-01   4.000000E-01   4.000000E-01   4.000000E-01   4.000000E-01   4.000000E-01   4.000000E-01   4.000000E-01   4.000000E-01   4.000000E-01   4.000000E-01   4.000000E-01   4.000000E-01   4.000000E-01   4.000000E-01   4.000000E-01   4.000000E-01   4.000000E-01   4.000000E-01   4.000000E-01   4.000000E-01   4.000000E-01   4.000000E-01   4.000000E-01   4.000000E-01   4.000000E-01   4.000000E-01   4.000000E-01   4.000000E-01   4.000000E-01   4.000000E-01   4.000000E-01   4.000000E-01   4.000000E-01   4.000000E-01   4.000000E-01   4.000000E-01   4.000000E-01   4.000000E-01   4.000000E-01   4.000000E-01   4.000000E-01   4.000000E-01   4.000000E-01   4.000000E-01   4.000000E-01   4.000000E-01   4.000000E-01   4.000000E-01   4.000000E-01   4.000000E-01   4.000000E-01   4.000000E-01   4.000000E-01   4.000000E-01   4.000000E-01   4.000000E-01   4.000000E-01   4.000000E-01   4.000000E-01   4.000000E-01   4.000000E-01   4.000000E-01   4.000000E-01   4.000000E-01   4.000000E-01   4.000000E-01   4.000000E-01   4.000000E-01   4.000000E-01   4.000000E-01   4.000000E-01   4.000000E-01   4.000000E-01   4.000000E-01   4.000000E-01   4.000000E-01   4.000000E-01   4.000000E-01   4.000000E-01   4.000000E-01   4.000000E-01   4.000000E-01   4.000000E-01   4.000000E-01   4.000000E-01   4.000000E-01   4.000000E-01   4.000000E-01   4.000000E-01   4.000000E-01   4.000000E-01   4.000000E-01   4.000000E-01   4.000000E-01   4.000000E-01   4.000000E-01   4.000000E-01   4.000000E-01   4.000000E-01   4.000000E-01   4.000000E-01   4.000000E-01   4.000000E-01   4.000000E-01   4.000000E-01   4.000000E-01   4.000000E-01   4.000000E-01   4.000000E-01   4.000000E-01   4.000000E-01   4.000000E-01   4.000000E-01   4.000000E-01   4.000000E-01   4.000000E-01   4.000000E-01   4.000000E-01   4.000000E-01   4.000000E-01   4.000000E-01   4.000000E-01   4.000000E-01   4.000000E-01   4.000000E-01   4.000000E-01   4.000000E-01   4.000000E-01   4.000000E-01   4.000000E-01   4.000000E-01   4.000000E-01   4.000000E-01   4.000000E-01   4.000000E-01   4.000000E-01   4.000000E-01   4.000000E-01   4.000000E-01   4.000000E-01   4.000000E-01   4.000000E-01   4.000000E-01   4.000000E-01   4.000000E-01   4.000000E-01   4.000000E-01   4.000000E-01   4.000000E-01   4.000000E-01   4.000000E-01   4.000000E-01   4.000000E-01   4.000000E-01   4.000000E-01   4.000000E-01   4.000000E-01   4.000000E-01   4.000000E-01   4.000000E-01   4.000000E-01   4.000000E-01   4.000000E-01   4.000000E-01   4.000000E-01   4.000000E-01   4.000000E-01   4.000000E-01   4.000000E-01   4.000000E-01   4.000000E-01   4.000000E-01   4.000000E-01   4.000000E-01   4.000000E-01   4.000000E-01   4.000000E-01   4.000000E-01   4.000000E-01   4.000000E-01   4.000000E-01   4.000000E-01   4.000000E-01   4.000000E-01   4.000000E-01   4.000000E-01   4.000000E-01   4.000000E-01   4.000000E-01   4.000000E-01   4.000000E-01   4.000000E-01   4.000000E-01   4.000000E-01   4.000000E-01   4.000000E-01   4.000000E-01   4.000000E-01   4.000000E-01   4.000000E-01   4.000000E-01   4.000000E-01   4.000000E-01   4.000000E-01   4.000000E-01   4.000000E-01   4.000000E-01   4.000000E-01   4.000000E-01   4.000000E-01   4.000000E-01   4.000000E-01   4.000000E-01   4.000000E-01   4.000000E-01   4.000000E-01   4.000000E-01   4.000000E-01   4.000000E-01   4.000000E-01   4.000000E-01   4.000000E-01   4.000000E-01   4.000000E-01   4.000000E-01   4.000000E-01   4.000000E-01   4.000000E-01   4.000000E-01   4.000000E-01   4.000000E-01   4.000000E-01   4.000000E-01   4.000000E-01   4.000000E-01   4.000000E-01   4.000000E-01   4.000000E-01   4.000000E-01   4.000000E-01   4.000000E-01   4.000000E-01   4.000000E-01   4.000000E-01   4.000000E-01   4.000000E-01   4.000000E-01   4.000000E-01   4.000000E-01   4.000000E-01   4.000000E-01   4.000000E-01   4.000000E-01   4.000000E-01   4.000000E-01   4.000000E-01   4.000000E-01   4.000000E-01   4.000000E-01   4.000000E-01   4.000000E-01   4.000000E-01   4.000000E-01   4.000000E-01   4.000000E-01   4.000000E-01   4.000000E-01   4.000000E-01   4.000000E-01   4.000000E-01   4.000000E-01   4.000000E-01   4.000000E-01   4.000000E-01   4.000000E-01   4.000000E-01   4.000000E-01   4.000000E-01   4.000000E-01   4.000000E-01   4.000000E-01   4.000000E-01   4.000000E-01   4.000000E-01   4.000000E-01   4.000000E-01   4.000000E-01   4.000000E-01   4.000000E-01   4.000000E-01   4.000000E-01   4.000000E-01   4.000000E-01   4.000000E-01   4.000000E-01   4.000000E-01   4.000000E-01   4.000000E-01   4.000000E-01   4.000000E-01   4.000000E-01   4.000000E-01   4.000000E-01   4.000000E-01   4.000000E-01   4.000000E-01   4.000000E-01   4.000000E-01   4.000000E-01   4.000000E-01   4.000000E-01   4.000000E-01   4.000000E-01   4.000000E-01   4.000000E-01   4.000000E-01   4.000000E-01   4.000000E-01   4.000000E-01   4.000000E-01   4.000000E-01   4.000000E-01   4.000000E-01   4.000000E-01   4.000000E-01   4.000000E-01   4.000000E-01   4.000000E-01   4.000000E-01   4.000000E-01   4.000000E-01   4.000000E-01   4.000000E-01   4.000000E-01   4.000000E-01   4.000000E-01   4.000000E-01   4.000000E-01   4.000000E-01   4.000000E-01   4.000000E-01   4.000000E-01   4.000000E-01   4.000000E-01   4.000000E-01   4.000000E-01   4.000000E-01   4.000000E-01   4.000000E-01   4.000000E-01   4.000000E-01   4.000000E-01   4.000000E-01   4.000000E-01   4.000000E-01   4.000000E-01   4.000000E-01   4.000000E-01   4.000000E-01   4.000000E-01   4.000000E-01   4.000000E-01   4.000000E-01   4.000000E-01   4.000000E-01   4.000000E-01   4.000000E-01   4.000000E-01   4.000000E-01   4.000000E-01   4.000000E-01   4.000000E-01   4.000000E-01   4.000000E-01   4.000000E-01   4.000000E-01   4.000000E-01   4.000000E-01   4.000000E-01   4.000000E-01   4.000000E-01   4.000000E-01   4.000000E-01   4.000000E-01   4.000000E-01   4.000000E-01   4.000000E-01   4.000000E-01   4.000000E-01   4.000000E-01   4.000000E-01   4.000000E-01   4.000000E-01   4.000000E-01   4.000000E-01   4.000000E-01   4.000000E-01   4.000000E-01   4.000000E-01   4.000000E-01   4.000000E-01   4.000000E-01   4.000000E-01   4.000000E-01   4.000000E-01   4.000000E-01   4.000000E-01   4.000000E-01   4.000000E-01   4.000000E-01   4.000000E-01   4.000000E-01   4.000000E-01   4.000000E-01   4.000000E-01   4.000000E-01   4.000000E-01   4.000000E-01   4.000000E-01   4.000000E-01   4.000000E-01   4.000000E-01   4.000000E-01   4.000000E-01   4.000000E-01   4.000000E-01   4.000000E-01   4.000000E-01   4.000000E-01   4.000000E-01   4.000000E-01   4.000000E-01   4.000000E-01   4.000000E-01   4.000000E-01   4.000000E-01   4.000000E-01   4.000000E-01   4.000000E-01   4.000000E-01   4.000000E-01   4.000000E-01   4.000000E-01   4.000000E-01   4.000000E-01   4.000000E-01   4.000000E-01   4.000000E-01   4.000000E-01   4.000000E-01   4.000000E-01   4.000000E-01   4.000000E-01   4.000000E-01   4.000000E-01   4.000000E-01   4.000000E-01   4.000000E-01   4.000000E-01   4.000000E-01   4.000000E-01   4.000000E-01   4.000000E-01   4.000000E-01   4.000000E-01   4.000000E-01   4.000000E-01   4.000000E-01   4.000000E-01   4.000000E-01   4.000000E-01   4.000000E-01   4.000000E-01   4.000000E-01   4.000000E-01   4.000000E-01   4.000000E-01   4.000000E-01   4.000000E-01   4.000000E-01   4.000000E-01   4.000000E-01   4.000000E-01   4.000000E-01   4.000000E-01   4.000000E-01   4.000000E-01   4.000000E-01   4.000000E-01   4.000000E-01   4.000000E-01   4.000000E-01   4.000000E-01   4.000000E-01   4.000000E-01   4.000000E-01   4.000000E-01   4.000000E-01   4.000000E-01   4.000000E-01   4.000000E-01   4.000000E-01   4.000000E-01   4.000000E-01   4.000000E-01   4.000000E-01   4.000000E-01   4.000000E-01   4.000000E-01   4.000000E-01   4.000000E-01   4.000000E-01   4.000000E-01   4.000000E-01   4.000000E-01   4.000000E-01   4.000000E-01   4.000000E-01   4.000000E-01   4.000000E-01   4.000000E-01   4.000000E-01   4.000000E-01   4.000000E-01   4.000000E-01   4.000000E-01   4.000000E-01   4.000000E-01   4.000000E-01   4.000000E-01   4.000000E-01   4.000000E-01   4.000000E-01   4.000000E-01   4.000000E-01   4.000000E-01   4.000000E-01   4.000000E-01   4.000000E-01   4.000000E-01   4.000000E-01   4.000000E-01   4.000000E-01   4.000000E-01   4.000000E-01   4.000000E-01   4.000000E-01   4.000000E-01   4.000000E-01   4.000000E-01   4.000000E-01   4.000000E-01   4.000000E-01   4.000000E-01   4.000000E-01   4.000000E-01   4.000000E-01   4.000000E-01   4.000000E-01   4.000000E-01   4.000000E-01   4.000000E-01   4.000000E-01   4.000000E-01   4.000000E-01   4.000000E-01   4.000000E-01   4.000000E-01   4.000000E-01   4.000000E-01   4.000000E-01   4.000000E-01   4.000000E-01   4.000000E-01   4.000000E-01   4.000000E-01   4.000000E-01   4.000000E-01   4.000000E-01   4.000000E-01   4.000000E-01   4.000000E-01   4.000000E-01   4.000000E-01   4.000000E-01   4.000000E-01   4.000000E-01   4.000000E-01   4.000000E-01   4.000000E-01   4.000000E-01   4.000000E-01   4.000000E-01   4.000000E-01   4.000000E-01   4.000000E-01   4.000000E-01   4.000000E-01   4.000000E-01   4.000000E-01   4.000000E-01   4.000000E-01   4.000000E-01   4.000000E-01   4.000000E-01   4.000000E-01   4.000000E-01   4.000000E-01   4.000000E-01   4.000000E-01   4.000000E-01   4.000000E-01   4.000000E-01   4.000000E-01   4.000000E-01   4.000000E-01   4.000000E-01   4.000000E-01   4.000000E-01   4.000000E-01   4.000000E-01   4.000000E-01   4.000000E-01   4.000000E-01   4.000000E-01   4.000000E-01   4.000000E-01   4.000000E-01   4.000000E-01   4.000000E-01   4.000000E-01   4.000000E-01   4.000000E-01   4.000000E-01   4.000000E-01   4.000000E-01   4.000000E-01   4.000000E-01   4.000000E-01   4.000000E-01   4.000000E-01   4.000000E-01   4.000000E-01   4.000000E-01   4.000000E-01   4.000000E-01   4.000000E-01   4.000000E-01   4.000000E-01   4.000000E-01   4.000000E-01   4.000000E-01   4.000000E-01   4.000000E-01   4.000000E-01   4.000000E-01   4.000000E-01   4.000000E-01   4.000000E-01   4.000000E-01   4.000000E-01   4.000000E-01   4.000000E-01   4.000000E-01   4.000000E-01   4.000000E-01   4.000000E-01   4.000000E-01   4.000000E-01   4.000000E-01   4.000000E-01   4.000000E-01   4.000000E-01   4.000000E-01   4.000000E-01   4.000000E-01   4.000000E-01   4.000000E-01   4.000000E-01   4.000000E-01   4.000000E-01   4.000000E-01   4.000000E-01   4.000000E-01   4.000000E-01   4.000000E-01   4.000000E-01   4.000000E-01   4.000000E-01   4.000000E-01   4.000000E-01   4.000000E-01   4.000000E-01   4.000000E-01   4.000000E-01   4.000000E-01   4.000000E-01   4.000000E-01   4.000000E-01   4.000000E-01   4.000000E-01   4.000000E-01   4.000000E-01   4.000000E-01   4.000000E-01   4.000000E-01   4.000000E-01   4.000000E-01   4.000000E-01   4.000000E-01   4.000000E-01   4.000000E-01   4.000000E-01   4.000000E-01   4.000000E-01   4.000000E-01   4.000000E-01   4.000000E-01   4.000000E-01   4.000000E-01   4.000000E-01   4.000000E-01   4.000000E-01   4.000000E-01   4.000000E-01   4.000000E-01   4.000000E-01   4.000000E-01   4.000000E-01   4.000000E-01   4.000000E-01   4.000000E-01   4.000000E-01   4.000000E-01   4.000000E-01   4.000000E-01   4.000000E-01   4.000000E-01   4.000000E-01   4.000000E-01   4.000000E-01   4.000000E-01   4.000000E-01   4.000000E-01   4.000000E-01   4.000000E-01   4.000000E-01   4.000000E-01   4.000000E-01   4.000000E-01   4.000000E-01   4.000000E-01   4.000000E-01   4.000000E-01   4.000000E-01   4.000000E-01   4.000000E-01   4.000000E-01   4.000000E-01   4.000000E-01   4.000000E-01   4.000000E-01   4.000000E-01   4.000000E-01   4.000000E-01   4.000000E-01   4.000000E-01   4.000000E-01   4.000000E-01   4.000000E-01   4.000000E-01   4.000000E-01   4.000000E-01   4.000000E-01   4.000000E-01   4.000000E-01   4.000000E-01   4.000000E-01   4.000000E-01   4.000000E-01   4.000000E-01   4.000000E-01   4.000000E-01   4.000000E-01   4.000000E-01   4.000000E-01   4.000000E-01   4.000000E-01   4.000000E-01   4.000000E-01   4.000000E-01   4.000000E-01   4.000000E-01   4.000000E-01   4.000000E-01   4.000000E-01   4.000000E-01   4.000000E-01   4.000000E-01   4.000000E-01   4.000000E-01   4.000000E-01   4.000000E-01   4.000000E-01   4.000000E-01   4.000000E-01   4.000000E-01   4.000000E-01   4.000000E-01   4.000000E-01   4.000000E-01   4.000000E-01   4.000000E-01   4.000000E-01   4.000000E-01   4.000000E-01   4.000000E-01   4.000000E-01   4.000000E-01   4.000000E-01   4.000000E-01   4.000000E-01   4.000000E-01   4.000000E-01   4.000000E-01   4.000000E-01   4.000000E-01   4.000000E-01   4.000000E-01   4.000000E-01   4.000000E-01   4.000000E-01   4.000000E-01   4.000000E-01   4.000000E-01   4.000000E-01   4.000000E-01   4.000000E-01   4.000000E-01   4.000000E-01   4.000000E-01   4.000000E-01   4.000000E-01   4.000000E-01   4.000000E-01   4.000000E-01   4.000000E-01   4.000000E-01   4.000000E-01   4.000000E-01   4.000000E-01   4.000000E-01   4.000000E-01   4.000000E-01   4.000000E-01   4.000000E-01   4.000000E-01   4.000000E-01   4.000000E-01   4.000000E-01   4.000000E-01   4.000000E-01   4.000000E-01   4.000000E-01   4.000000E-01   4.000000E-01   4.000000E-01   4.000000E-01   4.000000E-01   4.000000E-01   4.000000E-01   4.000000E-01   4.000000E-01   4.000000E-01   4.000000E-01   4.000000E-01   4.000000E-01   4.000000E-01   4.000000E-01   4.000000E-01   4.000000E-01   4.000000E-01   4.000000E-01   4.000000E-01   4.000000E-01   4.000000E-01   4.000000E-01   4.000000E-01   4.000000E-01   4.000000E-01   4.000000E-01   4.000000E-01   4.000000E-01   4.000000E-01   4.000000E-01   4.000000E-01   4.000000E-01   4.000000E-01   4.000000E-01   4.000000E-01   4.000000E-01   4.000000E-01   4.000000E-01   4.000000E-01   4.000000E-01   4.000000E-01   4.000000E-01   4.000000E-01   4.000000E-01   4.000000E-01   4.000000E-01   4.000000E-01   4.000000E-01   4.000000E-01   4.000000E-01   4.000000E-01   4.000000E-01   4.000000E-01   4.000000E-01   4.000000E-01   4.000000E-01   4.000000E-01   4.000000E-01   4.000000E-01   4.000000E-01   4.000000E-01   4.000000E-01   4.000000E-01   4.000000E-01   4.000000E-01   4.000000E-01   4.000000E-01   4.000000E-01   4.000000E-01   4.000000E-01   4.000000E-01   