<?xml version="1.0"?>
<!-- Time =  7.0065029269476964E-01s -->
<VTKFile type="PolyData" version="0.1" byte_order="LittleEndian">
<PolyData>
<Piece NumberOfPoints="0000002400" NumberOfVerts="0" NumberOfLines="0" NumberOfStrips="0" NumberOfPolys="0">
<Points>
<DataArray type="Float32" Name="Position" NumberOfComponents="3" format="ascii">
  8.925102E-01   1.978018E-01   0.000000E+00   1.597819E+00   1.985858E-01   0.000000E+00   2.396219E+00   1.981058E-01   0.000000E+00   4.769694E+00   1.993033E-01   0.000000E+00   6.061033E+00   2.004000E-01   0.000000E+00   6.587884E+00   1.209227E+01   0.000000E+00   5.848562E+00   6.202497E+00   0.000000E+00   7.449181E+00   1.531148E+01   0.000000E+00   7.910144E+00   2.306227E+01   0.000000E+00   7.159154E+00   6.186574E+00   0.000000E+00   7.712717E+00   2.340879E+01   0.000000E+00   6.884909E+00   2.095699E+01   0.000000E+00   7.603539E+00   1.041563E+01   0.000000E+00   6.627255E+00   7.276630E+00   0.000000E+00   4.673758E+00   1.753117E+01   0.000000E+00   7.920474E+00   1.771726E+01   0.000000E+00   1.991228E-01   1.979220E-01   0.000000E+00   1.244725E+00   3.863984E-01   0.000000E+00   1.997335E+00   1.958242E-01   0.000000E+00   3.292518E+00   2.004835E-01   0.000000E+00   5.170010E+00   1.999039E-01   0.000000E+00   6.264670E+00   6.263535E+00   0.000000E+00   6.591069E+00   6.762855E+00   0.000000E+00   7.687714E+00   2.271136E+01   0.000000E+00   4.696097E+00   1.863592E+01   0.000000E+00   5.197964E+00   2.193819E+01   0.000000E+00   6.511158E+00   2.058464E+01   0.000000E+00   5.994046E+00   2.161666E+01   0.000000E+00   4.313291E+00   1.487045E+01   0.000000E+00   5.294089E+00   2.080597E+01   0.000000E+00   5.456392E-01   3.959581E-01   0.000000E+00   1.584448E+00   5.970444E-01   0.000000E+00   2.891539E+00   1.994262E-01   0.000000E+00   3.968703E+00   1.995757E-01   0.000000E+00   6.981464E+00   5.561868E-01   0.000000E+00   7.378797E+00   1.395342E+01   0.000000E+00   6.313266E+00   1.499552E+01   0.000000E+00   7.024379E+00   2.235525E+01   0.000000E+00   4.003585E+00   1.459412E+01   0.000000E+00   2.872222E+00   1.266125E+01   0.000000E+00   4.658405E+00   1.678283E+01   0.000000E+00   7.919649E+00   2.377402E+01   0.000000E+00   4.008908E+00   1.676212E+01   0.000000E+00   5.686793E+00   2.088122E+01   0.000000E+00   1.993114E-01   5.964096E-01   0.000000E+00   8.915837E-01   5.962667E-01   0.000000E+00   1.237770E+00   7.953432E-01   0.000000E+00   2.641361E+00   5.112910E-01   0.000000E+00   3.055368E+00   5.641542E-01   0.000000E+00   4.969864E+00   5.465369E-01   0.000000E+00   7.167223E+00   1.995160E+00   0.000000E+00   7.834075E+00   1.873950E+01   0.000000E+00   6.083054E+00   2.093360E+01   0.000000E+00   4.786026E+00   2.027196E+01   0.000000E+00   7.107978E+00   2.307910E+01   0.000000E+00   4.271309E+00   1.741316E+01   0.000000E+00   7.675710E+00   1.740200E+01   0.000000E+00   5.439411E+00   1.841418E+01   0.000000E+00   5.453570E-01   7.955241E-01   0.000000E+00   8.913700E-01   9.953030E-01   0.000000E+00   1.983907E+00   5.915652E-01   0.000000E+00   2.338902E+00   7.759889E-01   0.000000E+00   3.633733E+00   4.179748E-01   0.000000E+00   6.467462E+00   2.519643E-01   0.000000E+00   6.662662E+00   6.086685E+00   0.000000E+00   7.002375E+00   1.190647E+01   0.000000E+00   7.274919E+00   1.741463E+01   0.000000E+00   7.041606E+00   5.323073E+00   0.000000E+00   5.416287E+00   2.119969E+01   0.000000E+00   5.654102E+00   1.807782E+01   0.000000E+00   7.779378E+00   1.507539E+01   0.000000E+00   1.992077E-01   9.954428E-01   0.000000E+00   5.452189E-01   1.194892E+00   0.000000E+00   1.584753E+00   9.959907E-01   0.000000E+00   1.986082E+00   9.876546E-01   0.000000E+00   2.803406E+00   8.744084E-01   0.000000E+00   5.577239E+00   2.012129E-01   0.000000E+00   6.652396E+00   1.653261E+00   0.000000E+00   6.061810E+00   4.192607E+00   0.000000E+00   6.685297E+00   1.441032E+01   0.000000E+00   7.470012E+00   1.571051E+01   0.000000E+00   7.168062E+00   1.956395E+01   0.000000E+00   6.625890E+00   2.236514E+01   0.000000E+00   4.340495E+00   1.653700E+01   0.000000E+00   3.317440E+00   1.444826E+01   0.000000E+00   7.602777E+00   2.200041E+01   0.000000E+00   1.991867E-01   1.394750E+00   0.000000E+00   1.237235E+00   1.194685E+00   0.000000E+00   1.582274E+00   1.395009E+00   0.000000E+00   2.338223E+00   1.176126E+00   0.000000E+00   4.136518E+00   5.619541E-01   0.000000E+00   4.368331E+00   2.340511E-01   0.000000E+00   7.255877E+00   3.889893E+00   0.000000E+00   5.912878E+00   1.384195E+01   0.000000E+00   7.862248E+00   1.697712E+01   0.000000E+00   7.280237E+00   2.092825E+01   0.000000E+00   7.996653E+00   2.197635E+01   0.000000E+00   6.418879E+00   2.202312E+01   0.000000E+00   3.595726E+00   1.518533E+01   0.000000E+00   5.777202E+00   2.233029E+01   0.000000E+00   3.853131E+00   1.550689E+01   0.000000E+00   5.452205E-01   1.594351E+00   0.000000E+00   8.911738E-01   1.394643E+00   0.000000E+00   1.237083E+00   1.594374E+00   0.000000E+00   1.979814E+00   1.384094E+00   0.000000E+00   3.409992E+00   7.493981E-01   0.000000E+00   4.560239E+00   5.900440E-01   0.000000E+00   6.230277E+00   5.777892E-01   0.000000E+00   5.499499E+00   1.178198E+01   0.000000E+00   5.921044E+00   1.340455E+01   0.000000E+00   7.194025E+00   1.599932E+01   0.000000E+00   6.237991E+00   2.129935E+01   0.000000E+00   6.502392E+00   2.274364E+01   0.000000E+00   3.937827E+00   1.596287E+01   0.000000E+00   3.673549E+00   1.325430E+01   0.000000E+00   4.888018E+00   1.899411E+01   0.000000E+00   5.565955E+00   1.939018E+01   0.000000E+00   4.840687E+00   1.716640E+01   0.000000E+00   1.992521E-01   1.794174E+00   0.000000E+00   8.913587E-01   1.794065E+00   0.000000E+00   1.584004E+00   1.793840E+00   0.000000E+00   2.328052E+00   1.576045E+00   0.000000E+00   2.727521E+00   1.265166E+00   0.000000E+00   5.370182E+00   5.512429E-01   0.000000E+00   6.890996E+00   3.439973E+00   0.000000E+00   5.595676E+00   4.365736E+00   0.000000E+00   6.851766E+00   1.481374E+01   0.000000E+00   5.594825E+00   2.156451E+01   0.000000E+00   5.195554E+00   2.154000E+01   0.000000E+00   3.632816E+00   1.477207E+01   0.000000E+00   3.693353E+00   1.423600E+01   0.000000E+00   7.901182E+00   2.124246E+01   0.000000E+00   1.993819E-01   2.193541E+00   0.000000E+00   5.454083E-01   1.993748E+00   0.000000E+00   1.237950E+00   1.993549E+00   0.000000E+00   1.983503E+00   1.781933E+00   0.000000E+00   2.333108E+00   1.975438E+00   0.000000E+00   3.807359E+00   7.946765E-01   0.000000E+00   6.613747E+00   7.288586E-01   0.000000E+00   5.939501E+00   1.264102E+01   0.000000E+00   5.947237E+00   2.596085E+00   0.000000E+00   7.552512E+00   1.451007E+01   0.000000E+00   7.505711E+00   2.306827E+01   0.000000E+00   5.268792E+00   1.912076E+01   0.000000E+00   3.980071E+00   1.636168E+01   0.000000E+00   5.362325E+00   1.973360E+01   0.000000E+00   1.995477E-01   2.592786E+00   0.000000E+00   5.457264E-01   2.392998E+00   0.000000E+00   1.584790E+00   2.192888E+00   0.000000E+00   1.984369E+00   2.179953E+00   0.000000E+00   2.716356E+00   1.662895E+00   0.000000E+00   3.155927E+00   1.061272E+00   0.000000E+00   4.803127E+00   9.105623E-01   0.000000E+00   6.769798E+00   2.912626E+00   0.000000E+00   6.413553E+00   3.098946E+00   0.000000E+00   5.964509E+00   2.034685E+00   0.000000E+00   7.689089E+00   1.306394E+01   0.000000E+00   7.334135E+00   2.162335E+01   0.000000E+00   4.335125E+00   1.701848E+01   0.000000E+00   4.983797E+00   2.105573E+01   0.000000E+00   5.133219E+00   1.867184E+01   0.000000E+00   6.573791E+00   5.310290E+00   0.000000E+00   4.828702E+00   1.792962E+01   0.000000E+00   1.997122E-01   2.991997E+00   0.000000E+00   5.460125E-01   2.792206E+00   0.000000E+00   8.918288E-01   2.193256E+00   0.000000E+00   1.238490E+00   2.392623E+00   0.000000E+00   2.333142E+00   2.375045E+00   0.000000E+00   2.723422E+00   2.061003E+00   0.000000E+00   4.265822E+00   9.399646E-01   0.000000E+00   5.824125E+00   5.239059E-01   0.000000E+00   6.822006E+00   2.182530E+00   0.000000E+00   6.433727E+00   2.266522E+00   0.000000E+00   6.085452E+00   5.640929E+00   0.000000E+00   5.489534E+00   8.911761E+00   0.000000E+00   6.711712E+00   2.308602E+01   0.000000E+00   6.480279E+00   2.098120E+01   0.000000E+00   3.984706E+00   1.509641E+01   0.000000E+00   6.897728E+00   2.273263E+01   0.000000E+00   4.349088E+00   1.528758E+01   0.000000E+00   1.997891E-01   3.391160E+00   0.000000E+00   5.462300E-01   3.191391E+00   0.000000E+00   8.922585E-01   2.592431E+00   0.000000E+00   1.585817E+00   2.592128E+00   0.000000E+00   1.986439E+00   2.578061E+00   0.000000E+00   3.079089E+00   1.453856E+00   0.000000E+00   5.608561E+00   8.727226E-01   0.000000E+00   6.383949E+00   1.055764E+00   0.000000E+00   6.009465E+00   9.158499E-01   0.000000E+00   6.267965E+00   1.438298E+00   0.000000E+00   6.700539E+00   8.457994E+00   0.000000E+00   7.109984E+00   2.128539E+01   0.000000E+00   7.131467E+00   7.757519E+00   0.000000E+00   6.325838E+00   1.580786E+01   0.000000E+00   7.116320E+00   1.426571E+01   0.000000E+00   1.997787E-01   3.790260E+00   0.000000E+00   5.463244E-01   3.590575E+00   0.000000E+00   8.925756E-01   2.991579E+00   0.000000E+00   1.238948E+00   2.791759E+00   0.000000E+00   1.585283E+00   2.991509E+00   0.000000E+00   2.334661E+00   2.774637E+00   0.000000E+00   3.544466E+00   1.151028E+00   0.000000E+00   4.550563E+00   1.220900E+00   0.000000E+00   3.065860E+00   1.853605E+00   0.000000E+00   3.440139E+00   1.627871E+00   0.000000E+00   5.732100E+00   1.258630E+00   0.000000E+00   5.918551E+00   1.632054E+00   0.000000E+00   7.791053E+00   1.913717E+01   0.000000E+00   7.395322E+00   1.917316E+01   0.000000E+00   5.101776E+00   2.003411E+01   0.000000E+00   5.643007E+00   2.048451E+01   0.000000E+00   3.961130E+00   1.715963E+01   0.000000E+00   1.997885E-01   4.189407E+00   0.000000E+00   5.463722E-01   3.989712E+00   0.000000E+00   8.926968E-01   3.390781E+00  
[...]
<PointData Scalars="Diameter" Vectors="Velocity">
<DataArray type="Float32" Name="Diameter" format="ascii">
  4.000000E-01   4.000000E-01   4.000000E-01   4.000000E-01   4.000000E-01   4.000000E-01   4.000000E-01   4.000000E-01   4.000000E-01   4.000000E-01   4.000000E-01   4.000000E-01   4.000000E-01   4.000000E-01   4.000000E-01   4.000000E-01   4.000000E-01   4.000000E-01   4.000000E-01   4.000000E-01   4.000000E-01   4.000000E-01   4.000000E-01   4.000000E-01   4.000000E-01   4.000000E-01   4.000000E-01   4.000000E-01   4.000000E-01   4.000000E-01   4.000000E-01   4.000000E-01   4.000000E-01   4.000000E-01   4.000000E-01   4.000000E-01   4.000000E-01   4.000000E-01   4.000000E-01   4.000000E-01   4.000000E-01   4.000000E-01   4.000000E-01   4.000000E-01   4.000000E-01   4.000000E-01   4.000000E-01   4.000000E-01   4.000000E-01   4.000000E-01   4.000000E-01   4.000000E-01   4.000000E-01   4.000000E-01   4.000000E-01   4.000000E-01   4.000000E-01   4.000000E-01   4.000000E-01   4.000000E-01   4.000000E-01   4.000000E-01   4.000000E-01   4.000000E-01   4.000000E-01   4.000000E-01   4.000000E-01   4.000000E-01   4.000000E-01   4.000000E-01   4.000000E-01   4.000000E-01   4.000000E-01   4.000000E-01   4.000000E-01   4.000000E-01   4.000000E-01   4.000000E-01   4.000000E-01   4.000000E-01   4.000000E-01   4.000000E-01   4.000000E-01   4.000000E-01   4.000000E-01   4.000000E-01   4.000000E-01   4.000000E-01   4.000000E-01   4.000000E-01   4.000000E-01   4.000000E-01   4.000000E-01   4.000000E-01   4.000000E-01   4.000000E-01   4.000000E-01   4.000000E-01   4.000000E-01   4.000000E-01   4.000000E-01   4.000000E-01   4.000000E-01   4.000000E-01   4.000000E-01   4.000000E-01   4.000000E-01   4.000000E-01   4.000000E-01   4.000000E-01   4.000000E-01   4.000000E-01   4.000000E-01   4.000000E-01   4.000000E-01   4.000000E-01   4.000000E-01   4.000000E-01   4.000000E-01   4.000000E-01   4.000000E-01   4.000000E-01   4.000000E-01   4.000000E-01   4.000000E-01   4.000000E-01   4.000000E-01   4.000000E-01   4.000000E-01   4.000000E-01   4.000000E-01   4.000000E-01   4.000000E-01   4.000000E-01   4.000000E-01   4.000000E-01   4.000000E-01   4.000000E-01   4.000000E-01   4.000000E-01   4.000000E-01   4.000000E-01   4.000000E-01   4.000000E-01   4.000000E-01   4.000000E-01   4.000000E-01   4.000000E-01   4.000000E-01   4.000000E-01   4.000000E-01   4.000000E-01   4.000000E-01   4.000000E-01   4.000000E-01   4.000000E-01   4.000000E-01   4.000000E-01   4.000000E-01   4.000000E-01   4.000000E-01   4.000000E-01   4.000000E-01   4.000000E-01   4.000000E-01   4.000000E-01   4.000000E-01   4.000000E-01   4.000000E-01   4.000000E-01   4.000000E-01   4.000000E-01   4.000000E-01   4.000000E-01   4.000000E-01   4.000000E-01   4.000000E-01   4.000000E-01   4.000000E-01   4.000000E-01   4.000000E-01   4.000000E-01   4.000000E-01   4.000000E-01   4.000000E-01   4.000000E-01   4.000000E-01   4.000000E-01   4.000000E-01   4.000000E-01   4.000000E-01   4.000000E-01   4.000000E-01   4.000000E-01   4.000000E-01   4.000000E-01   4.000000E-01   4.000000E-01   4.000000E-01   4.000000E-01   4.000000E-01   4.000000E-01   4.000000E-01   4.000000E-01   4.000000E-01   4.000000E-01   4.000000E-01   4.000000E-01   4.000000E-01   4.000000E-01   4.000000E-01   4.000000E-01   4.000000E-01   4.000000E-01   4.000000E-01   4.000000E-01   4.000000E-01   4.000000E-01   4.000000E-01   4.000000E-01   4.000000E-01   4.000000E-01   4.000000E-01   4.000000E-01   4.000000E-01   4.000000E-01   4.000000E-01   4.000000E-01   4.000000E-01   4.000000E-01   4.000000E-01   4.000000E-01   4.000000E-01   4.000000E-01   4.000000E-01   4.000000E-01   4.000000E-01   4.000000E-01   4.000000E-01   4.000000E-01   4.000000E-01   4.000000E-01   4.000000E-01   4.000000E-01   4.000000E-01   4.000000E-01   4.000000E-01   4.000000E-01   4.000000E-01   4.000000E-01   4.000000E-01   4.000000E-01   4.000000E-01   4.000000E-01   4.000000E-01   4.000000E-01   4.000000E-01   4.000000E-01   4.000000E-01   4.000000E-01   4.000000E-01   4.000000E-01   4.000000E-01   4.000000E-01   4.000000E-01   4.000000E-01   4.000000E-01   4.000000E-01   4.000000E-01   4.000000E-01   4.000000E-01   4.000000E-01   4.000000E-01   4.000000E-01   4.000000E-01   4.000000E-01   4.000000E-01   4.000000E-01   4.000000E-01   4.000000E-01   4.000000E-01   4.000000E-01   4.000000E-01   4.000000E-01   4.000000E-01   4.000000E-01   4.000000E-01   4.000000E-01   4.000000E-01   4.000000E-01   4.000000E-01   4.000000E-01   4.000000E-01   4.000000E-01   4.000000E-01   4.000000E-01   4.000000E-01   4.000000E-01   4.000000E-01   4.000000E-01   4.000000E-01   4.000000E-01   4.000000E-01   4.000000E-01   4.000000E-01   4.000000E-01   4.000000E-01   4.000000E-01   4.000000E-01   4.000000E-01   4.000000E-01   4.000000E-01   4.000000E-01   4.000000E-01   4.000000E-01   4.000000E-01   4.000000E-01   4.000000E-01   4.000000E-01   4.000000E-01   4.000000E-01   4.000000E-01   4.000000E-01   4.000000E-01   4.000000E-01   4.000000E-01   4.000000E-01   4.000000E-01   4.000000E-01   4.000000E-01   4.000000E-01   4.000000E-01   4.000000E-01   4.000000E-01   4.000000E-01   4.000000E-01   4.000000E-01   4.000000E-01   4.000000E-01   4.000000E-01   4.000000E-01   4.000000E-01   4.000000E-01   4.000000E-01   4.000000E-01   4.000000E-01   4.000000E-01   4.000000E-01   4.000000E-01   4.000000E-01   4.000000E-01   4.000000E-01   4.000000E-01   4.000000E-01   4.000000E-01   4.000000E-01   4.000000E-01   4.000000E-01   4.000000E-01   4.000000E-01   4.000000E-01   4.000000E-01   4.000000E-01   4.000000E-01   4.000000E-01   4.000000E-01   4.000000E-01   4.000000E-01   4.000000E-01   4.000000E-01   4.000000E-01   4.000000E-01   4.000000E-01   4.000000E-01   4.000000E-01   4.000000E-01   4.000000E-01   4.000000E-01   4.000000E-01   4.000000E-01   4.000000E-01   4.000000E-01   4.000000E-01   4.000000E-01   4.000000E-01   4.000000E-01   4.000000E-01   4.000000E-01   4.000000E-01   4.000000E-01   4.000000E-01   4.000000E-01   4.000000E-01   4.000000E-01   4.000000E-01   4.000000E-01   4.000000E-01   4.000000E-01   4.000000E-01   4.000000E-01   4.000000E-01   4.000000E-01   4.000000E-01   4.000000E-01   4.000000E-01   4.000000E-01   4.000000E-01   4.000000E-01   4.000000E-01   4.000000E-01   4.000000E-01   4.000000E-01   4.000000E-01   4.000000E-01   4.000000E-01   4.000000E-01   4.000000E-01   4.000000E-01   4.000000E-01   4.000000E-01   4.000000E-01   4.000000E-01   4.000000E-01   4.000000E-01   4.000000E-01   4.000000E-01   4.000000E-01   4.000000E-01   4.000000E-01   4.000000E-01   4.000000E-01   4.000000E-01   4.000000E-01   4.000000E-01   4.000000E-01   4.000000E-01   4.000000E-01   4.000000E-01   4.000000E-01   4.000000E-01   4.000000E-01   4.000000E-01   4.000000E-01   4.000000E-01   4.000000E-01   4.000000E-01   4.000000E-01   4.000000E-01   4.000000E-01   4.000000E-01   4.000000E-01   4.000000E-01   4.000000E-01   4.000000E-01   4.000000E-01   4.000000E-01   4.000000E-01   4.000000E-01   4.000000E-01   4.000000E-01   4.000000E-01   4.000000E-01   4.000000E-01   4.000000E-01   4.000000E-01   4.000000E-01   4.000000E-01   4.000000E-01   4.000000E-01   4.000000E-01   4.000000E-01   4.000000E-01   4.000000E-01   4.000000E-01   4.000000E-01   4.000000E-01   4.000000E-01   4.000000E-01   4.000000E-01   4.000000E-01   4.000000E-01   4.000000E-01   4.000000E-01   4.000000E-01   4.000000E-01   4.000000E-01   4.000000E-01   4.000000E-01   4.000000E-01   4.000000E-01   4.000000E-01   4.000000E-01   4.000000E-01   4.000000E-01   4.000000E-01   4.000000E-01   4.000000E-01   4.000000E-01   4.000000E-01   4.000000E-01   4.000000E-01   4.000000E-01   4.000000E-01   4.000000E-01   4.000000E-01   4.000000E-01   4.000000E-01   4.000000E-01   4.000000E-01   4.000000E-01   4.000000E-01   4.000000E-01   4.000000E-01   4.000000E-01   4.000000E-01   4.000000E-01   4.000000E-01   4.000000E-01   4.000000E-01   4.000000E-01   4.000000E-01   4.000000E-01   4.000000E-01   4.000000E-01   4.000000E-01   4.000000E-01   4.000000E-01   4.000000E-01   4.000000E-01   4.000000E-01   4.000000E-01   4.000000E-01   4.000000E-01   4.000000E-01   4.000000E-01   4.000000E-01   4.000000E-01   4.000000E-01   4.000000E-01   4.000000E-01   4.000000E-01   4.000000E-01   4.000000E-01   4.000000E-01   4.000000E-01   4.000000E-01   4.000000E-01   4.000000E-01   4.000000E-01   4.000000E-01   4.000000E-01   4.000000E-01   4.000000E-01   4.000000E-01   4.000000E-01   4.000000E-01   4.000000E-01   4.000000E-01   4.000000E-01   4.000000E-01   4.000000E-01   4.000000E-01   4.000000E-01   4.000000E-01   4.000000E-01   4.000000E-01   4.000000E-01   4.000000E-01   4.000000E-01   4.000000E-01   4.000000E-01   4.000000E-01   4.000000E-01   4.000000E-01   4.000000E-01   4.000000E-01   4.000000E-01   4.000000E-01   4.000000E-01   4.000000E-01   4.000000E-01   4.000000E-01   4.000000E-01   4.000000E-01   4.000000E-01   4.000000E-01   4.000000E-01   4.000000E-01   4.000000E-01   4.000000E-01   4.000000E-01   4.000000E-01   4.000000E-01   4.000000E-01   4.000000E-01   4.000000E-01   4.000000E-01   4.000000E-01   4.000000E-01   4.000000E-01   4.000000E-01   4.000000E-01   4.000000E-01   4.000000E-01   4.000000E-01   4.000000E-01   4.000000E-01   4.000000E-01   4.000000E-01   4.000000E-01   4.000000E-01   4.000000E-01   4.000000E-01   4.000000E-01   4.000000E-01   4.000000E-01   4.000000E-01   4.000000E-01   4.000000E-01   4.000000E-01   4.000000E-01   4.000000E-01   4.000000E-01   4.000000E-01   4.000000E-01   4.000000E-01   4.000000E-01   4.000000E-01   4.000000E-01   4.000000E-01   4.000000E-01   4.000000E-01   4.000000E-01   4.000000E-01   4.000000E-01   4.000000E-01   4.000000E-01   4.000000E-01   4.000000E-01   4.000000E-01   4.000000E-01   4.000000E-01   4.000000E-01   4.000000E-01   4.000000E-01   4.000000E-01   4.000000E-01   4.000000E-01   4.000000E-01   4.000000E-01   4.000000E-01   4.000000E-01   4.000000E-01   4.000000E-01   4.000000E-01   4.000000E-01   4.000000E-01   4.000000E-01   4.000000E-01   4.000000E-01   4.000000E-01   4.000000E-01   4.000000E-01   4.000000E-01   4.000000E-01   4.000000E-01   4.000000E-01   4.000000E-01   4.000000E-01   4.000000E-01   4.000000E-01   4.000000E-01   4.000000E-01   4.000000E-01   4.000000E-01   4.000000E-01   4.000000E-01   4.000000E-01   4.000000E-01   4.000000E-01   4.000000E-01   4.000000E-01   4.000000E-01   4.000000E-01   4.000000E-01   4.000000E-01   4.000000E-01   4.000000E-01   4.000000E-01   4.000000E-01   4.000000E-01   4.000000E-01   4.000000E-01   4.000000E-01   4.000000E-01   4.000000E-01   4.000000E-01   4.000000E-01   4.000000E-01   4.000000E-01   4.000000E-01   4.000000E-01   4.000000E-01   4.000000E-01   4.000000E-01   4.000000E-01   4.000000E-01   4.000000E-01   4.000000E-01   4.000000E-01   4.000000E-01   4.000000E-01   4.000000E-01   4.000000E-01   4.000000E-01   4.000000E-01   4.000000E-01   4.000000E-01   4.000000E-01   4.000000E-01   4.000000E-01   4.000000E-01   4.000000E-01   4.000000E-01   4.000000E-01   4.000000E-01   4.000000E-01   4.000000E-01   4.000000E-01   4.000000E-01   4.000000E-01   4.000000E-01   4.000000E-01   4.000000E-01   4.000000E-01   4.000000E-01   4.000000E-01   4.000000E-01   4.000000E-01   4.000000E-01   4.000000E-01   4.000000E-01   4.000000E-01   4.000000E-01   4.000000E-01   4.000000E-01   4.000000E-01   4.000000E-01   4.000000E-01   4.000000E-01   4.000000E-01   4.000000E-01   4.000000E-01   4.000000E-01   4.000000E-01   4.000000E-01   4.000000E-01   4.000000E-01   4.000000E-01   4.000000E-01   4.000000E-01   4.000000E-01   4.000000E-01   4.000000E-01   4.000000E-01   4.000000E-01   4.000000E-01   4.000000E-01   4.000000E-01   4.000000E-01   4.000000E-01   4.000000E-01   4.000000E-01   4.000000E-01   4.000000E-01   4.000000E-01   4.000000E-01   4.000000E-01   4.000000E-01   4.000000E-01   4.000000E-01   4.000000E-01   4.000000E-01   4.000000E-01   4.000000E-01   4.000000E-01   4.000000E-01   4.000000E-01   4.000000E-01   4.000000E-01   4.000000E-01   4.000000E-01   4.000000E-01   4.000000E-01   4.000000E-01   4.000000E-01   4.000000E-01   4.000000E-01   4.000000E-01   4.000000E-01   4.000000E-01   4.000000E-01   4.000000E-01   4.000000E-01   4.000000E-01   4.000000E-01   4.000000E-01   4.000000E-01   4.000000E-01   4.000000E-01   4.000000E-01   4.000000E-01   4.000000E-01   4.000000E-01   4.000000E-01   4.000000E-01   4.000000E-01   4.000000E-01   4.000000E-01   4.000000E-01   4.000000E-01   4.000000E-01   4.000000E-01   4.000000E-01   4.000000E-01   4.000000E-01   4.000000E-01   4.000000E-01   4.000000E-01   4.000000E-01   4.000000E-01   4.000000E-01   4.000000E-01   4.000000E-01   4.000000E-01   4.000000E-01   4.000000E-01   4.000000E-01   4.000000E-01   4.000000E-01   4.000000E-01   4.000000E-01   4.000000E-01   4.000000E-01   4.000000E-01   4.000000E-01   4.000000E-01   4.000000E-01   4.000000E-01   4.000000E-01   4.000000E-01   4.000000E-01   4.000000E-01   4.000000E-01   4.000000E-01   4.000000E-01   4.000000E-01   4.000000E-01   4.000000E-01   4.000000E-01   4.000000E-01   4.000000E-01   4.000000E-01   4.000000E-01   4.000000E-01   4.000000E-01   4.000000E-01   4.000000E-01   4.000000E-01   4.000000E-01   4.000000E-01   4.000000E-01   4.000000E-01   4.000000E-01   4.000000E-01   4.000000E-01   4.000000E-01   4.000000E-01   4.000000E-01   4.000000E-01   4.000000E-01   4.000000E-01   4.000000E-01   4.000000E-01   4.000000E-01   4.000000E-01   4.000000E-01   4.000000E-01   4.000000E-01   4.000000E-01   4.000000E-01   4.000000E-01   4.000000E-01   4.000000E-01   4.000000E-01   4.000000E-01   4.000000E-01   4.000000E-01   4.000000E-01   4.000000E-01   4.000000E-01   4.000000E-01   4.000000E-01   4.000000E-01   4.000000E-01   4.000000E-01   4.000000E-01   4.000000E-01   4.000000E-01   4.000000E-01   4.000000E-01   4.000000E-01   4.000000E-01   4.000000E-01   4.000000E-01   4.000000E-01   4.000000E-01   4.000000E-01   4.000000E-01   4.000000E-01   4.000000E-01   4.000000E-01   4.000000E-01   4.000000E-01   4.000000E-01   4.000000E-01   4.000000E-01   4.000000E-01   4.000000E-01   4.000000E-01   4.000000E-01   4.000000E-01   4.000000E-01   4.000000E-01   4.000000E-01   4.000000E-01   4.000000E-01   4.000000E-01   4.000000E-01   4.000000E-01   4.000000E-01   4.000000E-01   4.000000E-01   4.000000E-01   4.000000E-01   4.000000E-01   4.000000E-01   4.000000E-01   4.000000E-01   4.000000E-01   4.000000E-01   4.000000E-01   4.000000E-01   4.000000E-01   4.000000E-01   4.000000E-01   4.000000E-01   4.000000E-01   4.000000E-01   4.000000E-01   4.000000E-01   4.000000E-01   4.000000E-01   4.000000E-01   4.000000E-01   4.000000E-01   4.000000E-01   4.000000E-01   4.000000E-01   4.000000E-01   4.000000E-01   4.000000E-01   4.000000E-01   4.000000E-01   4.000000E-01   4.000000E-01   4.000000E-01   4.000000E-01   4.000000E-01   4.000000E-01   4.000000E-01   4.000000E-01   4.000000E-01   4.000000E-01   4.000000E-01   4.000000E-01   4.000000E-01   4.000000E-01   4.000000E-01   4.000000E-01   4.000000E-01   4.000000E-01   4.000000E-01   4.000000E-01   4.000000E-01   4.000000E-01   4.000000E-01   4.000000E-01   4.000000E-01   4.000000E-01   4.000000E-01   4.000000E-01   4.000000E-01   4.000000E-01   4.000000E-01   4.000000E-01   4.000000E-01   4.000000E-01   4.000000E-01   4.000000E-01   4.000000E-01   4.000000E-01   4.000000E-01   4.000000E-01   4.000000E-01   4.000000E-01   4.000000E-01   4.000000E-01   4.000000E-01   4.000000E-01   4.000000E-01   4.000000E-01   4.000000E-01   4.000000E-01   4.000000E-01   4.000000E-01   4.000000E-01   4.000000E-01   4.000000E-01   4.000000E-01   4.000000E-01   4.000000E-01   4.000000E-01   4.000000E-01   4.000000E-01   4.000000E-01   4.000000E-01   4.000000E-01   4.000000E-01   4.000000E-01   4.000000E-01   4.000000E-01   4.000000E-01   4.000000E-01   4.000000E-01   4.000000E-01   4.000000E-01   4.000000E-01   4.000000E-01   4.000000E-01   4.000000E-01   4.000000E-01   4.000000E-01   4.000000E-01   4.000000E-01   4.000000E-01   4.000000E-01   4.000000E-01   4.000000E-01   4.000000E-01   4.000000E-01   4.000000E-01   4.000000E-01   4.000000E-01   4.000000E-01   4.000000E-01   4.000000E-01   4.000000E-01   4.000000E-01   4.000000E-01   4.000000E-01   4.000000E-01   4.000000E-01   4.000000E-01   4.000000E-01   4.000000E-01   4.000000E-01   4.000000E-01   4.000000E-01   4.000000E-01   4.000000E-01   4.000000E-01   4.000000E-01   4.000000E-01   4.000000E-01   4.000000E-01   4.000000E-01   4.000000E-01   4.000000E-01   4.000000E-01   4.000000E-01   4.000000E-01   4.000000E-01   4.000000E-01   4.000000E-01   4.000000E-01   4.000000E-01   4.000000E-01   4.000000E-01   4.000000E-01   4.000000E-01   4.000000E-01   4.000000E-01   4.000000E-01   4.000000E-01   4.000000E-01   4.000000E-01   4.000000E-01   4.000000E-01   4.000000E-01   4.000000E-01   4.000000E-01   4.000000E-01   4.000000E-01   4.000000E-01   4.000000E-01   4.000000E-01   4.000000E-01   4.000000E-01   4.000000E-01   4.000000E-01   4.000000E-01   4.000000E-01   4.000000E-01   4.000000E-01   4.000000E-01   4.000000E-01   4.000000E-01   4.000000E-01   4.000000E-01   4.000000E-01   4.000000E-01   4.000000E-01   4.000000E-01   4.000000E-01   4.000000E-01   4.000000E-01   4.000000E-01   4.000000E-01   4.000000E-01   4.000000E-01   4.000000E-01   4.000000E-01   4.000000E-01   4.000000E-01   4.000000E-01   4.000000E-01   4.000000E-01   4.000000E-01   4.000000E-01   4.000000E-01   4.000000E-01   4.000000E-01   4.000000E-01   4.000000E-01   4.000000E-01   4.000000E-01   4.000000E-01   4.000000E-01   4.000000E-01   4.000000E-01   4.000000E-01   4.000000E-01   4.000000E-01   4.000000E-01   4.000000E-01   4.000000E-01   4.000000E-01   4.000000E-01   4.000000E-01   4.000000E-01   4.000000E-01   4.000000E-01   4.000000E-01   4.000000E-01   4.000000E-01   4.000000E-01   4.000000E-01   4.000000E-01   4.000000E-01   4.000000E-01   4.000000E-01   4.000000E-01   4.000000E-01   4.000000E-01   4.000000E-01   4.000000E-01   4.000000E-01   4.000000E-01   4.000000E-01   4.000000E-01   4.000000E-01   4.000000E-01   4.000000E-01   4.000000E-01   4.000000E-01   4.000000E-01   4.000000E-01   4.000000E-01   4.000000E-01   4.000000E-01   4.000000E-01   4.000000E-01   4.000000E-01   4.000000E-01   4.000000E-01   4.000000E-01   4.000000E-01   4.000000E-01   4.000000E-01   4.000000E-01   4.000000E-01   4.000000E-01   4.000000E-01   4.000000E-01   4.000000E-01   4.000000E-01   4.000000E-01   4.000000E-01   4.000000E-01   4.000000E-01   4.000000E-01   4.000000E-01   4.000000E-01   4.000000E-01   4.000000E-01   4.000000E-01   4.000000E-01   4.000000E-01   4.000000E-01   4.000000E-01   4.000000E-01   4.000000E-01   4.000000E-01   4.000000E-01   4.000000E-01   4.000000E-01   4.000000E-01   4.000000E-01   4.000000E-01   4.000000E-01   4.000000E-01   4.000000E-01   4.000000E-01   4.000000E-01   4.000000E-01   4.000000E-01   4.000000E-01   4.000000E-01   4.000000E-01   4.000000E-01   4.000000E-01   4.000000E-01   4.000000E-01   4.000000E-01   4.000000E-01   4.000000E-01   4.000000E-01   4.000000E-01   4.000000E-01   4.000000E-01   4.000000E-01   4.000000E-01   4.000000E-01   4.000000E-01   4.000000E-01   4.000000E-01   4.000000E-01   4.000000E-01   4.000000E-01   4.000000E-01   4.000000E-01   4.000000E-01   4.000000E-01   4.000000E-01   4.000000E-01   4.000000E-01   4.000000E-01   4.000000E-01   4.000000E-01   4.000000E-01   4.000000E-01   4.000000E-01   4.000000E-01   4.000000E-01   4.000000E-01   4.000000E-01   4.000000E-01   4.000000E-01   4.000000E-01   4.000000E-01   4.000000E-01   4.000000E-01   4.000000E-01   4.000000E-01   4.000000E-01   4.000000E-01   4.000000E-01   4.000000E-01   4.000000E-01   4.000000E-01   4.000000E-01   4.000000E-01   4.000000E-01   4.000000E-01   4.000000E-01   4.000000E-01   4.000000E-01   4.000000E-01   4.000000E-01   4.000000E-01   4.000000E-01   4.000000E-01   4.000000E-01   4.000000E-01   4.000000E-01   4.000000E-01   4.000000E-01   4.000000E-01   4.000000E-01   4.000000E-01   4.000000E-01   4.000000E-01   4.000000E-01   4.000000E-01   4.000000E-01   