<?xml version="1.0"?>
<!-- Time =  4.0025029269476869E-01s -->
<VTKFile type="PolyData" version="0.1" byte_order="LittleEndian">
<PolyData>
<Piece NumberOfPoints="0000002400" NumberOfVerts="0" NumberOfLines="0" NumberOfStrips="0" NumberOfPolys="0">
<Points>
<DataArray type="Float32" Name="Position" NumberOfComponents="3" format="ascii">
  8.913895E-01   1.959715E-01   0.000000E+00   1.586302E+00   1.956383E-01   0.000000E+00   2.320541E+00   1.968845E-01   0.000000E+00   3.738266E+00   1.981283E-01   0.000000E+00   4.139710E+00   2.001467E-01   0.000000E+00   5.075533E+00   1.999092E-01   0.000000E+00   5.482019E+00   1.994037E-01   0.000000E+00   6.352624E+00   2.062864E-01   0.000000E+00   6.938684E+00   3.124190E+00   0.000000E+00   7.323670E+00   1.250266E+01   0.000000E+00   7.544201E+00   1.336270E+01   0.000000E+00   5.364600E+00   9.592934E+00   0.000000E+00   7.746893E+00   8.788927E+00   0.000000E+00   4.796322E+00   1.347899E+01   0.000000E+00   1.988794E-01   1.968677E-01   0.000000E+00   1.238875E+00   3.918841E-01   0.000000E+00   1.952908E+00   3.555126E-01   0.000000E+00   3.123480E+00   1.997125E-01   0.000000E+00   3.933137E+00   5.459867E-01   0.000000E+00   4.645564E+00   1.989393E-01   0.000000E+00   5.279032E+00   5.444848E-01   0.000000E+00   5.900443E+00   2.054211E-01   0.000000E+00   6.605728E+00   5.397196E-01   0.000000E+00   6.867836E+00   1.011628E+01   0.000000E+00   6.738048E+00   1.516780E+01   0.000000E+00   7.137274E+00   1.626704E+01   0.000000E+00   5.361998E+00   1.002559E+01   0.000000E+00   6.145942E+00   1.085573E+01   0.000000E+00   3.570085E+00   1.544354E+01   0.000000E+00   6.860154E+00   1.074612E+01   0.000000E+00   5.453008E-01   3.939818E-01   0.000000E+00   1.585082E+00   5.921230E-01   0.000000E+00   2.720735E+00   1.981818E-01   0.000000E+00   3.432156E+00   4.542873E-01   0.000000E+00   4.394094E+00   5.090995E-01   0.000000E+00   4.860278E+00   5.368369E-01   0.000000E+00   5.681779E+00   5.473987E-01   0.000000E+00   6.627574E+00   9.430124E-01   0.000000E+00   7.413503E+00   9.328650E+00   0.000000E+00   7.605274E+00   1.212088E+01   0.000000E+00   4.191984E+00   1.507012E+01   0.000000E+00   4.277429E+00   1.691045E+01   0.000000E+00   4.081223E+00   1.364854E+01   0.000000E+00   7.815292E+00   1.608962E+01   0.000000E+00   6.028541E+00   1.706918E+01   0.000000E+00   5.701142E+00   1.061363E+01   0.000000E+00   1.992526E-01   5.942591E-01   0.000000E+00   8.919894E-01   5.932480E-01   0.000000E+00   1.238971E+00   7.909112E-01   0.000000E+00   2.278732E+00   5.916781E-01   0.000000E+00   2.677855E+00   5.940480E-01   0.000000E+00   3.621002E+00   8.062744E-01   0.000000E+00   4.607537E+00   8.472854E-01   0.000000E+00   5.062771E+00   8.816282E-01   0.000000E+00   6.103641E+00   5.575538E-01   0.000000E+00   7.203829E+00   5.391465E+00   0.000000E+00   6.944016E+00   9.682437E+00   0.000000E+00   6.579185E+00   1.291485E+01   0.000000E+00   7.802052E+00   1.487511E+01   0.000000E+00   6.434432E+00   1.560050E+01   0.000000E+00   7.538261E+00   4.555809E+00   0.000000E+00   4.030132E+00   1.298354E+01   0.000000E+00   5.459124E-01   7.924460E-01   0.000000E+00   8.929296E-01   9.909426E-01   0.000000E+00   1.931866E+00   7.884431E-01   0.000000E+00   2.281901E+00   9.896660E-01   0.000000E+00   3.075123E+00   6.328190E-01   0.000000E+00   4.189308E+00   8.522772E-01   0.000000E+00   4.811038E+00   1.193233E+00   0.000000E+00   5.473018E+00   8.982849E-01   0.000000E+00   6.527621E+00   2.130985E+00   0.000000E+00   6.994679E+00   4.863600E+00   0.000000E+00   7.519687E+00   1.297071E+01   0.000000E+00   7.362525E+00   1.585613E+01   0.000000E+00   3.527869E+00   1.229169E+01   0.000000E+00   1.994065E-01   9.916296E-01   0.000000E+00   5.465519E-01   1.190022E+00   0.000000E+00   1.586115E+00   9.899024E-01   0.000000E+00   1.934097E+00   1.187210E+00   0.000000E+00   2.681836E+00   9.917990E-01   0.000000E+00   3.882360E+00   1.108337E+00   0.000000E+00   4.400436E+00   1.191341E+00   0.000000E+00   5.251060E+00   1.234888E+00   0.000000E+00   6.280417E+00   1.149067E+00   0.000000E+00   6.303086E+00   2.982002E+00   0.000000E+00   6.749835E+00   7.015469E+00   0.000000E+00   7.069780E+00   1.204950E+01   0.000000E+00   6.047413E+00   1.231081E+01   0.000000E+00   4.653983E+00   1.649089E+01   0.000000E+00   7.309045E+00   8.422236E+00   0.000000E+00   1.996814E-01   1.388418E+00   0.000000E+00   1.240092E+00   1.189299E+00   0.000000E+00   1.587269E+00   1.387974E+00   0.000000E+00   2.285905E+00   1.387773E+00   0.000000E+00   3.083085E+00   1.032098E+00   0.000000E+00   3.457618E+00   1.171190E+00   0.000000E+00   4.602345E+00   1.536061E+00   0.000000E+00   5.894793E+00   9.215931E-01   0.000000E+00   6.552334E+00   4.100696E+00   0.000000E+00   6.881720E+00   7.431060E+00   0.000000E+00   7.126424E+00   8.935131E+00   0.000000E+00   6.484695E+00   1.058263E+01   0.000000E+00   5.495522E+00   1.607066E+01   0.000000E+00   7.550098E+00   1.639246E+01   0.000000E+00   5.976536E+00   1.556107E+01   0.000000E+00   5.470737E-01   1.587060E+00   0.000000E+00   8.938236E-01   1.388489E+00   0.000000E+00   1.240865E+00   1.587064E+00   0.000000E+00   1.934591E+00   1.586073E+00   0.000000E+00   2.689849E+00   1.389453E+00   0.000000E+00   3.087645E+00   1.431904E+00   0.000000E+00   4.119169E+00   1.480921E+00   0.000000E+00   5.650214E+00   1.256551E+00   0.000000E+00   6.008638E+00   1.441741E+00   0.000000E+00   6.836342E+00   3.625920E+00   0.000000E+00   6.660951E+00   8.957314E+00   0.000000E+00   7.398170E+00   1.450873E+01   0.000000E+00   6.204516E+00   1.518793E+01   0.000000E+00   4.107780E+00   1.593868E+01   0.000000E+00   6.172108E+00   1.377615E+01   0.000000E+00   4.967682E+00   1.233569E+01   0.000000E+00   3.501351E+00   1.361706E+01   0.000000E+00   1.996686E-01   1.784446E+00   0.000000E+00   8.944772E-01   1.786116E+00   0.000000E+00   1.587709E+00   1.785771E+00   0.000000E+00   2.281044E+00   1.785935E+00   0.000000E+00   2.680935E+00   1.787030E+00   0.000000E+00   3.719366E+00   1.473071E+00   0.000000E+00   5.002512E+00   1.548810E+00   0.000000E+00   5.773354E+00   1.764397E+00   0.000000E+00   6.183059E+00   1.825694E+00   0.000000E+00   6.090333E+00   2.530922E+00   0.000000E+00   6.052294E+00   3.362831E+00   0.000000E+00   6.718403E+00   1.183517E+01   0.000000E+00   6.874285E+00   1.560270E+01   0.000000E+00   4.963078E+00   1.604386E+01   0.000000E+00   4.995039E+00   1.464620E+01   0.000000E+00   7.966181E+00   8.358977E+00   0.000000E+00   1.994976E-01   2.180129E+00   0.000000E+00   5.476170E-01   1.984012E+00   0.000000E+00   1.241682E+00   1.984872E+00   0.000000E+00   1.934422E+00   1.984551E+00   0.000000E+00   2.280633E+00   2.184068E+00   0.000000E+00   3.175342E+00   1.822142E+00   0.000000E+00   4.325557E+00   1.825070E+00   0.000000E+00   5.406833E+00   1.605783E+00   0.000000E+00   5.919368E+00   2.135600E+00   0.000000E+00   5.518485E+00   2.079526E+00   0.000000E+00   5.694776E+00   2.472713E+00   0.000000E+00   7.236266E+00   1.113602E+01   0.000000E+00   7.181647E+00   1.157231E+01   0.000000E+00   5.908239E+00   1.282769E+01   0.000000E+00   6.152298E+00   1.614324E+01   0.000000E+00   5.405902E+00   1.120679E+01   0.000000E+00   1.994714E-01   2.576048E+00   0.000000E+00   5.483220E-01   2.381152E+00   0.000000E+00   1.588733E+00   2.183834E+00   0.000000E+00   1.935334E+00   2.383236E+00   0.000000E+00   2.679428E+00   2.184483E+00   0.000000E+00   3.077698E+00   2.209940E+00   0.000000E+00   3.576796E+00   1.845810E+00   0.000000E+00   4.734640E+00   1.912988E+00   0.000000E+00   5.142482E+00   1.923744E+00   0.000000E+00   5.298667E+00   2.414515E+00   0.000000E+00   5.833941E+00   2.851995E+00   0.000000E+00   6.996204E+00   7.993657E+00   0.000000E+00   5.501614E+00   1.468522E+01   0.000000E+00   7.305190E+00   1.501130E+01   0.000000E+00   5.106904E+00   1.146869E+01   0.000000E+00   7.579617E+00   1.145793E+01   0.000000E+00   4.354013E+00   1.335381E+01   0.000000E+00   1.993017E-01   2.972519E+00   0.000000E+00   5.491049E-01   2.778724E+00   0.000000E+00   8.955749E-01   2.183922E+00   0.000000E+00   1.242855E+00   2.382802E+00   0.000000E+00   2.282109E+00   2.582444E+00   0.000000E+00   2.681210E+00   2.582206E+00   0.000000E+00   3.476425E+00   2.232205E+00   0.000000E+00   3.955787E+00   1.976818E+00   0.000000E+00   4.459076E+00   2.204135E+00   0.000000E+00   4.929101E+00   2.261966E+00   0.000000E+00   5.439067E+00   2.790782E+00   0.000000E+00   6.178407E+00   3.932701E+00   0.000000E+00   7.540572E+00   1.537045E+01   0.000000E+00   6.392535E+00   9.568085E+00   0.000000E+00   5.615587E+00   1.232937E+01   0.000000E+00   7.020412E+00   1.353202E+01   0.000000E+00   4.574398E+00   1.450486E+01   0.000000E+00   1.995180E-01   3.369260E+00   0.000000E+00   5.498009E-01   3.176169E+00   0.000000E+00   8.965635E-01   2.581604E+00   0.000000E+00   1.589990E+00   2.582112E+00   0.000000E+00   1.936959E+00   2.781806E+00   0.000000E+00   3.079596E+00   2.609704E+00   0.000000E+00   3.853496E+00   2.363954E+00   0.000000E+00   4.219372E+00   2.524813E+00   0.000000E+00   4.415717E+00   2.874121E+00   0.000000E+00   4.654827E+00   2.552760E+00   0.000000E+00   5.574402E+00   3.172206E+00   0.000000E+00   6.171353E+00   7.941764E+00   0.000000E+00   5.694321E+00   3.580576E+00   0.000000E+00   7.525948E+00   1.379755E+01   0.000000E+00   5.939719E+00   5.926518E+00   0.000000E+00   1.998810E-01   3.765666E+00   0.000000E+00   5.504714E-01   3.573252E+00   0.000000E+00   8.974611E-01   2.979187E+00   0.000000E+00   1.243862E+00   2.780840E+00   0.000000E+00   1.591232E+00   2.980472E+00   0.000000E+00   2.284511E+00   2.981273E+00   0.000000E+00   3.479784E+00   2.632054E+00   0.000000E+00   3.857299E+00   2.764283E+00   0.000000E+00   3.083938E+00   3.009280E+00   0.000000E+00   3.483222E+00   3.032235E+00   0.000000E+00   4.781987E+00   3.039447E+00   0.000000E+00   5.029550E+00   2.709977E+00  
[...]
<PointData Scalars="Diameter" Vectors="Velocity">
<DataArray type="Float32" Name="Diameter" format="ascii">
  4.000000E-01   4.000000E-01   4.000000E-01   4.000000E-01   4.000000E-01   4.000000E-01   4.000000E-01   4.000000E-01   4.000000E-01   4.000000E-01   4.000000E-01   4.000000E-01   4.000000E-01   4.000000E-01   4.000000E-01   4.000000E-01   4.000000E-01   4.000000E-01   4.000000E-01   4.000000E-01   4.000000E-01   4.000000E-01   4.000000E-01   4.000000E-01   4.000000E-01   4.000000E-01   4.000000E-01   4.000000E-01   4.000000E-01   4.000000E-01   4.000000E-01   4.000000E-01   4.000000E-01   4.000000E-01   4.000000E-01   4.000000E-01   4.000000E-01   4.000000E-01   4.000000E-01   4.000000E-01   4.000000E-01   4.000000E-01   4.000000E-01   4.000000E-01   4.000000E-01   4.000000E-01   4.000000E-01   4.000000E-01   4.000000E-01   4.000000E-01   4.000000E-01   4.000000E-01   4.000000E-01   4.000000E-01   4.000000E-01   4.000000E-01   4.000000E-01   4.000000E-01   4.000000E-01   4.000000E-01   4.000000E-01   4.000000E-01   4.000000E-01   4.000000E-01   4.000000E-01   4.000000E-01   4.000000E-01   4.000000E-01   4.000000E-01   4.000000E-01   4.000000E-01   4.000000E-01   4.000000E-01   4.000000E-01   4.000000E-01   4.000000E-01   4.000000E-01   4.000000E-01   4.000000E-01   4.000000E-01   4.000000E-01   4.000000E-01   4.000000E-01   4.000000E-01   4.000000E-01   4.000000E-01   4.000000E-01   4.000000E-01   4.000000E-01   4.000000E-01   4.000000E-01   4.000000E-01   4.000000E-01   4.000000E-01   4.000000E-01   4.000000E-01   4.000000E-01   4.000000E-01   4.000000E-01   4.000000E-01   4.000000E-01   4.000000E-01   4.000000E-01   4.000000E-01   4.000000E-01   4.000000E-01   4.000000E-01   4.000000E-01   4.000000E-01   4.000000E-01   4.000000E-01   4.000000E-01   4.000000E-01   4.000000E-01   4.000000E-01   4.000000E-01   4.000000E-01   4.000000E-01   4.000000E-01   4.000000E-01   4.000000E-01   4.000000E-01   4.000000E-01   4.000000E-01   4.000000E-01   4.000000E-01   4.000000E-01   4.000000E-01   4.000000E-01   4.000000E-01   4.000000E-01   4.000000E-01   4.000000E-01   4.000000E-01   4.000000E-01   4.000000E-01   4.000000E-01   4.000000E-01   4.000000E-01   4.000000E-01   4.000000E-01   4.000000E-01   4.000000E-01   4.000000E-01   4.000000E-01   4.000000E-01   4.000000E-01   4.000000E-01   4.000000E-01   4.000000E-01   4.000000E-01   4.000000E-01   4.000000E-01   4.000000E-01   4.000000E-01   4.000000E-01   4.000000E-01   4.000000E-01   4.000000E-01   4.000000E-01   4.000000E-01   4.000000E-01   4.000000E-01   4.000000E-01   4.000000E-01   4.000000E-01   4.000000E-01   4.000000E-01   4.000000E-01   4.000000E-01   4.000000E-01   4.000000E-01   4.000000E-01   4.000000E-01   4.000000E-01   4.000000E-01   4.000000E-01   4.000000E-01   4.000000E-01   4.000000E-01   4.000000E-01   4.000000E-01   4.000000E-01   4.000000E-01   4.000000E-01   4.000000E-01   4.000000E-01   4.000000E-01   4.000000E-01   4.000000E-01   4.000000E-01   4.000000E-01   4.000000E-01   4.000000E-01   4.000000E-01   4.000000E-01   4.000000E-01   4.000000E-01   4.000000E-01   4.000000E-01   4.000000E-01   4.000000E-01   4.000000E-01   4.000000E-01   4.000000E-01   4.000000E-01   4.000000E-01   4.000000E-01   4.000000E-01   4.000000E-01   4.000000E-01   4.000000E-01   4.000000E-01   4.000000E-01   4.000000E-01   4.000000E-01   4.000000E-01   4.000000E-01   4.000000E-01   4.000000E-01   4.000000E-01   4.000000E-01   4.000000E-01   4.000000E-01   4.000000E-01   4.000000E-01   4.000000E-01   4.000000E-01   4.000000E-01   4.000000E-01   4.000000E-01   4.000000E-01   4.000000E-01   4.000000E-01   4.000000E-01   4.000000E-01   4.000000E-01   4.000000E-01   4.000000E-01   4.000000E-01   4.000000E-01   4.000000E-01   4.000000E-01   4.000000E-01   4.000000E-01   4.000000E-01   4.000000E-01   4.000000E-01   4.000000E-01   4.000000E-01   4.000000E-01   4.000000E-01   4.000000E-01   4.000000E-01   4.000000E-01   4.000000E-01   4.000000E-01   4.000000E-01   4.000000E-01   4.000000E-01   4.000000E-01   4.000000E-01   4.000000E-01   4.000000E-01   4.000000E-01   4.000000E-01   4.000000E-01   4.000000E-01   4.000000E-01   4.000000E-01   4.000000E-01   4.000000E-01   4.000000E-01   4.000000E-01   4.000000E-01   4.000000E-01   4.000000E-01   4.000000E-01   4.000000E-01   4.000000E-01   4.000000E-01   4.000000E-01   4.000000E-01   4.000000E-01   4.000000E-01   4.000000E-01   4.000000E-01   4.000000E-01   4.000000E-01   4.000000E-01   4.000000E-01   4.000000E-01   4.000000E-01   4.000000E-01   4.000000E-01   4.000000E-01   4.000000E-01   4.000000E-01   4.000000E-01   4.000000E-01   4.000000E-01   4.000000E-01   4.000000E-01   4.000000E-01   4.000000E-01   4.000000E-01   4.000000E-01   4.000000E-01   4.000000E-01   4.000000E-01   4.000000E-01   4.000000E-01   4.000000E-01   4.000000E-01   4.000000E-01   4.000000E-01   4.000000E-01   4.000000E-01   4.000000E-01   4.000000E-01   4.000000E-01   4.000000E-01   4.000000E-01   4.000000E-01   4.000000E-01   4.000000E-01   4.000000E-01   4.000000E-01   4.000000E-01   4.000000E-01   4.000000E-01   4.000000E-01   4.000000E-01   4.000000E-01   4.000000E-01   4.000000E-01   4.000000E-01   4.000000E-01   4.000000E-01   4.000000E-01   4.000000E-01   4.000000E-01   4.000000E-01   4.000000E-01   4.000000E-01   4.000000E-01   4.000000E-01   4.000000E-01   4.000000E-01   4.000000E-01   4.000000E-01   4.000000E-01   4.000000E-01   4.000000E-01   4.000000E-01   4.000000E-01   4.000000E-01   4.000000E-01   4.000000E-01   4.000000E-01   4.000000E-01   4.000000E-01   4.000000E-01   4.000000E-01   4.000000E-01   4.000000E-01   4.000000E-01   4.000000E-01   4.000000E-01   4.000000E-01   4.000000E-01   4.000000E-01   4.000000E-01   4.000000E-01   4.000000E-01   4.000000E-01   4.000000E-01   4.000000E-01   4.000000E-01   4.000000E-01   4.000000E-01   4.000000E-01   4.000000E-01   4.000000E-01   4.000000E-01   4.000000E-01   4.000000E-01   4.000000E-01   4.000000E-01   4.000000E-01   4.000000E-01   4.000000E-01   4.000000E-01   4.000000E-01   4.000000E-01   4.000000E-01   4.000000E-01   4.000000E-01   4.000000E-01   4.000000E-01   4.000000E-01   4.000000E-01   4.000000E-01   4.000000E-01   4.000000E-01   4.000000E-01   4.000000E-01   4.000000E-01   4.000000E-01   4.000000E-01   4.000000E-01   4.000000E-01   4.000000E-01   4.000000E-01   4.000000E-01   4.000000E-01   4.000000E-01   4.000000E-01   4.000000E-01   4.000000E-01   4.000000E-01   4.000000E-01   4.000000E-01   4.000000E-01   4.000000E-01   4.000000E-01   4.000000E-01   4.000000E-01   4.000000E-01   4.000000E-01   4.000000E-01   4.000000E-01   4.000000E-01   4.000000E-01   4.000000E-01   4.000000E-01   4.000000E-01   4.000000E-01   4.000000E-01   4.000000E-01   4.000000E-01   4.000000E-01   4.000000E-01   4.000000E-01   4.000000E-01   4.000000E-01   4.000000E-01   4.000000E-01   4.000000E-01   4.000000E-01   4.000000E-01   4.000000E-01   4.000000E-01   4.000000E-01   4.000000E-01   4.000000E-01   4.000000E-01   4.000000E-01   4.000000E-01   4.000000E-01   4.000000E-01   4.000000E-01   4.000000E-01   4.000000E-01   4.000000E-01   4.000000E-01   4.000000E-01   4.000000E-01   4.000000E-01   4.000000E-01   4.000000E-01   4.000000E-01   4.000000E-01   4.000000E-01   4.000000E-01   4.000000E-01   4.000000E-01   4.000000E-01   4.000000E-01   4.000000E-01   4.000000E-01   4.000000E-01   4.000000E-01   4.000000E-01   4.000000E-01   4.000000E-01   4.000000E-01   4.000000E-01   4.000000E-01   4.000000E-01   4.000000E-01   4.000000E-01   4.000000E-01   4.000000E-01   4.000000E-01   4.000000E-01   4.000000E-01   4.000000E-01   4.000000E-01   4.000000E-01   4.000000E-01   4.000000E-01   4.000000E-01   4.000000E-01   4.000000E-01   4.000000E-01   4.000000E-01   4.000000E-01   4.000000E-01   4.000000E-01   4.000000E-01   4.000000E-01   4.000000E-01   4.000000E-01   4.000000E-01   4.000000E-01   4.000000E-01   4.000000E-01   4.000000E-01   4.000000E-01   4.000000E-01   4.000000E-01   4.000000E-01   4.000000E-01   4.000000E-01   4.000000E-01   4.000000E-01   4.000000E-01   4.000000E-01   4.000000E-01   4.000000E-01   4.000000E-01   4.000000E-01   4.000000E-01   4.000000E-01   4.000000E-01   4.000000E-01   4.000000E-01   4.000000E-01   4.000000E-01   4.000000E-01   4.000000E-01   4.000000E-01   4.000000E-01   4.000000E-01   4.000000E-01   4.000000E-01   4.000000E-01   4.000000E-01   4.000000E-01   4.000000E-01   4.000000E-01   4.000000E-01   4.000000E-01   4.000000E-01   4.000000E-01   4.000000E-01   4.000000E-01   4.000000E-01   4.000000E-01   4.000000E-01   4.000000E-01   4.000000E-01   4.000000E-01   4.000000E-01   4.000000E-01   4.000000E-01   4.000000E-01   4.000000E-01   4.000000E-01   4.000000E-01   4.000000E-01   4.000000E-01   4.000000E-01   4.000000E-01   4.000000E-01   4.000000E-01   4.000000E-01   4.000000E-01   4.000000E-01   4.000000E-01   4.000000E-01   4.000000E-01   4.000000E-01   4.000000E-01   4.000000E-01   4.000000E-01   4.000000E-01   4.000000E-01   4.000000E-01   4.000000E-01   4.000000E-01   4.000000E-01   4.000000E-01   4.000000E-01   4.000000E-01   4.000000E-01   4.000000E-01   4.000000E-01   4.000000E-01   4.000000E-01   4.000000E-01   4.000000E-01   4.000000E-01   4.000000E-01   4.000000E-01   4.000000E-01   4.000000E-01   4.000000E-01   4.000000E-01   4.000000E-01   4.000000E-01   4.000000E-01   4.000000E-01   4.000000E-01   4.000000E-01   4.000000E-01   4.000000E-01   4.000000E-01   4.000000E-01   4.000000E-01   4.000000E-01   4.000000E-01   4.000000E-01   4.000000E-01   4.000000E-01   4.000000E-01   4.000000E-01   4.000000E-01   4.000000E-01   4.000000E-01   4.000000E-01   4.000000E-01   4.000000E-01   4.000000E-01   4.000000E-01   4.000000E-01   4.000000E-01   4.000000E-01   4.000000E-01   4.000000E-01   4.000000E-01   4.000000E-01   4.000000E-01   4.000000E-01   4.000000E-01   4.000000E-01   4.000000E-01   4.000000E-01   4.000000E-01   4.000000E-01   4.000000E-01   4.000000E-01   4.000000E-01   4.000000E-01   4.000000E-01   4.000000E-01   4.000000E-01   4.000000E-01   4.000000E-01   4.000000E-01   4.000000E-01   4.000000E-01   4.000000E-01   4.000000E-01   4.000000E-01   4.000000E-01   4.000000E-01   4.000000E-01   4.000000E-01   4.000000E-01   4.000000E-01   4.000000E-01   4.000000E-01   4.000000E-01   4.000000E-01   4.000000E-01   4.000000E-01   4.000000E-01   4.000000E-01   4.000000E-01   4.000000E-01   4.000000E-01   4.000000E-01   4.000000E-01   4.000000E-01   4.000000E-01   4.000000E-01   4.000000E-01   4.000000E-01   4.000000E-01   4.000000E-01   4.000000E-01   4.000000E-01   4.000000E-01   4.000000E-01   4.000000E-01   4.000000E-01   4.000000E-01   4.000000E-01   4.000000E-01   4.000000E-01   4.000000E-01   4.000000E-01   4.000000E-01   4.000000E-01   4.000000E-01   4.000000E-01   4.000000E-01   4.000000E-01   4.000000E-01   4.000000E-01   4.000000E-01   4.000000E-01   4.000000E-01   4.000000E-01   4.000000E-01   4.000000E-01   4.000000E-01   4.000000E-01   4.000000E-01   4.000000E-01   4.000000E-01   4.000000E-01   4.000000E-01   4.000000E-01   4.000000E-01   4.000000E-01   4.000000E-01   4.000000E-01   4.000000E-01   4.000000E-01   4.000000E-01   4.000000E-01   4.000000E-01   4.000000E-01   4.000000E-01   4.000000E-01   4.000000E-01   4.000000E-01   4.000000E-01   4.000000E-01   4.000000E-01   4.000000E-01   4.000000E-01   4.000000E-01   4.000000E-01   4.000000E-01   4.000000E-01   4.000000E-01   4.000000E-01   4.000000E-01   4.000000E-01   4.000000E-01   4.000000E-01   4.000000E-01   4.000000E-01   4.000000E-01   4.000000E-01   4.000000E-01   4.000000E-01   4.000000E-01   4.000000E-01   4.000000E-01   4.000000E-01   4.000000E-01   4.000000E-01   4.000000E-01   4.000000E-01   4.000000E-01   4.000000E-01   4.000000E-01   4.000000E-01   4.000000E-01   4.000000E-01   4.000000E-01   4.000000E-01   4.000000E-01   4.000000E-01   4.000000E-01   4.000000E-01   4.000000E-01   4.000000E-01   4.000000E-01   4.000000E-01   4.000000E-01   4.000000E-01   4.000000E-01   4.000000E-01   4.000000E-01   4.000000E-01   4.000000E-01   4.000000E-01   4.000000E-01   4.000000E-01   4.000000E-01   4.000000E-01   4.000000E-01   4.000000E-01   4.000000E-01   4.000000E-01   4.000000E-01   4.000000E-01   4.000000E-01   4.000000E-01   4.000000E-01   4.000000E-01   4.000000E-01   4.000000E-01   4.000000E-01   4.000000E-01   4.000000E-01   4.000000E-01   4.000000E-01   4.000000E-01   4.000000E-01   4.000000E-01   4.000000E-01   4.000000E-01   4.000000E-01   4.000000E-01   4.000000E-01   4.000000E-01   4.000000E-01   4.000000E-01   4.000000E-01   4.000000E-01   4.000000E-01   4.000000E-01   4.000000E-01   4.000000E-01   4.000000E-01   4.000000E-01   4.000000E-01   4.000000E-01   4.000000E-01   4.000000E-01   4.000000E-01   4.000000E-01   4.000000E-01   4.000000E-01   4.000000E-01   4.000000E-01   4.000000E-01   4.000000E-01   4.000000E-01   4.000000E-01   4.000000E-01   4.000000E-01   4.000000E-01   4.000000E-01   4.000000E-01   4.000000E-01   4.000000E-01   4.000000E-01   4.000000E-01   4.000000E-01   4.000000E-01   4.000000E-01   4.000000E-01   4.000000E-01   4.000000E-01   4.000000E-01   4.000000E-01   4.000000E-01   4.000000E-01   4.000000E-01   4.000000E-01   4.000000E-01   4.000000E-01   4.000000E-01   4.000000E-01   4.000000E-01   4.000000E-01   4.000000E-01   4.000000E-01   4.000000E-01   4.000000E-01   4.000000E-01   4.000000E-01   4.000000E-01   4.000000E-01   4.000000E-01   4.000000E-01   4.000000E-01   4.000000E-01   4.000000E-01   4.000000E-01   4.000000E-01   4.000000E-01   4.000000E-01   4.000000E-01   4.000000E-01   4.000000E-01   4.000000E-01   4.000000E-01   4.000000E-01   4.000000E-01   4.000000E-01   4.000000E-01   4.000000E-01   4.000000E-01   4.000000E-01   4.000000E-01   4.000000E-01   4.000000E-01   4.000000E-01   4.000000E-01   4.000000E-01   4.000000E-01   4.000000E-01   4.000000E-01   4.000000E-01   4.000000E-01   4.000000E-01   4.000000E-01   4.000000E-01   4.000000E-01   4.000000E-01   4.000000E-01   4.000000E-01   4.000000E-01   4.000000E-01   4.000000E-01   4.000000E-01   4.000000E-01   4.000000E-01   4.000000E-01   4.000000E-01   4.000000E-01   4.000000E-01   4.000000E-01   4.000000E-01   4.000000E-01   4.000000E-01   4.000000E-01   4.000000E-01   4.000000E-01   4.000000E-01   4.000000E-01   4.000000E-01   4.000000E-01   4.000000E-01   4.000000E-01   4.000000E-01   4.000000E-01   4.000000E-01   4.000000E-01   4.000000E-01   4.000000E-01   4.000000E-01   4.000000E-01   4.000000E-01   4.000000E-01   4.000000E-01   4.000000E-01   4.000000E-01   4.000000E-01   4.000000E-01   4.000000E-01   4.000000E-01   4.000000E-01   4.000000E-01   4.000000E-01   4.000000E-01   4.000000E-01   4.000000E-01   4.000000E-01   4.000000E-01   4.000000E-01   4.000000E-01   4.000000E-01   4.000000E-01   4.000000E-01   4.000000E-01   4.000000E-01   4.000000E-01   4.000000E-01   4.000000E-01   4.000000E-01   4.000000E-01   4.000000E-01   4.000000E-01   4.000000E-01   4.000000E-01   4.000000E-01   4.000000E-01   4.000000E-01   4.000000E-01   4.000000E-01   4.000000E-01   4.000000E-01   4.000000E-01   4.000000E-01   4.000000E-01   4.000000E-01   4.000000E-01   4.000000E-01   4.000000E-01   4.000000E-01   4.000000E-01   4.000000E-01   4.000000E-01   4.000000E-01   4.000000E-01   4.000000E-01   4.000000E-01   4.000000E-01   4.000000E-01   4.000000E-01   4.000000E-01   4.000000E-01   4.000000E-01   4.000000E-01   4.000000E-01   4.000000E-01   4.000000E-01   4.000000E-01   4.000000E-01   4.000000E-01   4.000000E-01   4.000000E-01   4.000000E-01   4.000000E-01   4.000000E-01   4.000000E-01   4.000000E-01   4.000000E-01   4.000000E-01   4.000000E-01   4.000000E-01   4.000000E-01   4.000000E-01   4.000000E-01   4.000000E-01   4.000000E-01   4.000000E-01   4.000000E-01   4.000000E-01   4.000000E-01   4.000000E-01   4.000000E-01   4.000000E-01   4.000000E-01   4.000000E-01   4.000000E-01   4.000000E-01   4.000000E-01   4.000000E-01   4.000000E-01   4.000000E-01   4.000000E-01   4.000000E-01   4.000000E-01   4.000000E-01   4.000000E-01   4.000000E-01   4.000000E-01   4.000000E-01   4.000000E-01   4.000000E-01   4.000000E-01   4.000000E-01   4.000000E-01   4.000000E-01   4.000000E-01   4.000000E-01   4.000000E-01   4.000000E-01   4.000000E-01   4.000000E-01   4.000000E-01   4.000000E-01   4.000000E-01   4.000000E-01   4.000000E-01   4.000000E-01   4.000000E-01   4.000000E-01   4.000000E-01   4.000000E-01   4.000000E-01   4.000000E-01   4.000000E-01   4.000000E-01   4.000000E-01   4.000000E-01   4.000000E-01   4.000000E-01   4.000000E-01   4.000000E-01   4.000000E-01   4.000000E-01   4.000000E-01   4.000000E-01   4.000000E-01   4.000000E-01   4.000000E-01   4.000000E-01   4.000000E-01   4.000000E-01   4.000000E-01   4.000000E-01   4.000000E-01   4.000000E-01   4.000000E-01   4.000000E-01   4.000000E-01   4.000000E-01   4.000000E-01   4.000000E-01   4.000000E-01   4.000000E-01   4.000000E-01   4.000000E-01   4.000000E-01   4.000000E-01   4.000000E-01   4.000000E-01   4.000000E-01   4.000000E-01   4.000000E-01   4.000000E-01   4.000000E-01   4.000000E-01   4.000000E-01   4.000000E-01   4.000000E-01   4.000000E-01   4.000000E-01   4.000000E-01   4.000000E-01   4.000000E-01   4.000000E-01   4.000000E-01   4.000000E-01   4.000000E-01   4.000000E-01   4.000000E-01   4.000000E-01   4.000000E-01   4.000000E-01   4.000000E-01   4.000000E-01   4.000000E-01   4.000000E-01   4.000000E-01   4.000000E-01   4.000000E-01   4.000000E-01   4.000000E-01   4.000000E-01   4.000000E-01   4.000000E-01   4.000000E-01   4.000000E-01   4.000000E-01   4.000000E-01   4.000000E-01   4.000000E-01   4.000000E-01   4.000000E-01   4.000000E-01   4.000000E-01   4.000000E-01   4.000000E-01   4.000000E-01   4.000000E-01   4.000000E-01   4.000000E-01   4.000000E-01   4.000000E-01   4.000000E-01   4.000000E-01   4.000000E-01   4.000000E-01   4.000000E-01   4.000000E-01   4.000000E-01   4.000000E-01   4.000000E-01   4.000000E-01   4.000000E-01   4.000000E-01   4.000000E-01   4.000000E-01   4.000000E-01   4.000000E-01   4.000000E-01   4.000000E-01   4.000000E-01   4.000000E-01   4.000000E-01   4.000000E-01   4.000000E-01   4.000000E-01   4.000000E-01   4.000000E-01   4.000000E-01   4.000000E-01   4.000000E-01   4.000000E-01   4.000000E-01   4.000000E-01   4.000000E-01   4.000000E-01   4.000000E-01   4.000000E-01   4.000000E-01   4.000000E-01   4.000000E-01   4.000000E-01   4.000000E-01   4.000000E-01   4.000000E-01   4.000000E-01   4.000000E-01   4.000000E-01   4.000000E-01   4.000000E-01   4.000000E-01   4.000000E-01   4.000000E-01   4.000000E-01   4.000000E-01   4.000000E-01   4.000000E-01   4.000000E-01   4.000000E-01   4.000000E-01   4.000000E-01   4.000000E-01   4.000000E-01   4.000000E-01   4.000000E-01   4.000000E-01   4.000000E-01   4.000000E-01   4.000000E-01   4.000000E-01   4.000000E-01   4.000000E-01   4.000000E-01   4.000000E-01   4.000000E-01   4.000000E-01   4.000000E-01   4.000000E-01   4.000000E-01   4.000000E-01   4.000000E-01   4.000000E-01   4.000000E-01   4.000000E-01   4.000000E-01   4.000000E-01   4.000000E-01   4.000000E-01   4.000000E-01   4.000000E-01   4.000000E-01   4.000000E-01   4.000000E-01   4.000000E-01   4.000000E-01   4.000000E-01   4.000000E-01   4.000000E-01   4.000000E-01   4.000000E-01   4.000000E-01   4.000000E-01   4.000000E-01   4.000000E-01   4.000000E-01   4.000000E-01   4.000000E-01   4.000000E-01   4.000000E-01   4.000000E-01   4.000000E-01   4.000000E-01   4.000000E-01   4.000000E-01   4.000000E-01   4.000000E-01   4.000000E-01   4.000000E-01   4.000000E-01   4.000000E-01   4.000000E-01   4.000000E-01   4.000000E-01   4.000000E-01   4.000000E-01   4.000000E-01   4.000000E-01   4.000000E-01   4.000000E-01   4.000000E-01   4.000000E-01   4.000000E-01   4.000000E-01   4.000000E-01   4.000000E-01   4.000000E-01   4.000000E-01   4.000000E-01   4.000000E-01   4.000000E-01   4.000000E-01   4.000000E-01   4.000000E-01   4.000000E-01   4.000000E-01   4.000000E-01   4.000000E-01   4.000000E-01   4.000000E-01   4.000000E-01   4.000000E-01   4.000000E-01   4.000000E-01   4.000000E-01   4.000000E-01   4.000000E-01   