<?xml version="1.0"?>
<!-- Time =  5.0045029269476893E-01s -->
<VTKFile type="PolyData" version="0.1" byte_order="LittleEndian">
<PolyData>
<Piece NumberOfPoints="0000002400" NumberOfVerts="0" NumberOfLines="0" NumberOfStrips="0" NumberOfPolys="0">
<Points>
<DataArray type="Float32" Name="Position" NumberOfComponents="3" format="ascii">
  9.115756E-01   1.985848E-01   0.000000E+00   1.637524E+00   1.989763E-01   0.000000E+00   2.363630E+00   1.994306E-01   0.000000E+00   3.817355E+00   1.987406E-01   0.000000E+00   4.546885E+00   1.997697E-01   0.000000E+00   5.782026E+00   1.999842E-01   0.000000E+00   6.187918E+00   2.000469E-01   0.000000E+00   7.061200E+00   4.266411E+00   0.000000E+00   7.310781E+00   8.801064E+00   0.000000E+00   7.373401E+00   1.397477E+01   0.000000E+00   4.764560E+00   1.391646E+01   0.000000E+00   7.822742E+00   9.889716E+00   0.000000E+00   2.003723E-01   1.988532E-01   0.000000E+00   1.274378E+00   3.663574E-01   0.000000E+00   2.000419E+00   3.663847E-01   0.000000E+00   3.164071E+00   1.986029E-01   0.000000E+00   4.182142E+00   3.630706E-01   0.000000E+00   5.376736E+00   1.994608E-01   0.000000E+00   5.983165E+00   5.458690E-01   0.000000E+00   6.606464E+00   3.062134E-01   0.000000E+00   6.283163E+00   2.064098E+00   0.000000E+00   4.966918E+00   1.578271E+01   0.000000E+00   6.196137E+00   1.673489E+01   0.000000E+00   6.969257E+00   1.387468E+01   0.000000E+00   6.930593E+00   1.589899E+01   0.000000E+00   3.707970E+00   1.266206E+01   0.000000E+00   6.135426E+00   1.559604E+01   0.000000E+00   5.559230E-01   3.816563E-01   0.000000E+00   1.607524E+00   5.969473E-01   0.000000E+00   2.763675E+00   1.995553E-01   0.000000E+00   3.490363E+00   4.297688E-01   0.000000E+00   4.946611E+00   1.996474E-01   0.000000E+00   5.579330E+00   5.443556E-01   0.000000E+00   6.376643E+00   6.331821E-01   0.000000E+00   6.660306E+00   6.422582E+00   0.000000E+00   7.657707E+00   1.555030E+01   0.000000E+00   7.896290E+00   7.055643E+00   0.000000E+00   3.653677E+00   1.307052E+01   0.000000E+00   2.911121E+00   1.443315E+01   0.000000E+00   4.730079E+00   1.347270E+01   0.000000E+00   4.469734E+00   1.632209E+01   0.000000E+00   6.372927E+00   1.528211E+01   0.000000E+00   1.996306E-01   5.976200E-01   0.000000E+00   8.927257E-01   5.972030E-01   0.000000E+00   1.250058E+00   7.764081E-01   0.000000E+00   2.326301E+00   5.973268E-01   0.000000E+00   2.726134E+00   5.973570E-01   0.000000E+00   3.854809E+00   5.952287E-01   0.000000E+00   5.161562E+00   5.363672E-01   0.000000E+00   5.782806E+00   8.930292E-01   0.000000E+00   6.789295E+00   8.418816E-01   0.000000E+00   7.802239E+00   1.155820E+01   0.000000E+00   6.579363E+00   1.493211E+01   0.000000E+00   5.811468E+00   1.592202E+01   0.000000E+00   7.797236E+00   1.692561E+01   0.000000E+00   4.574875E+00   1.584327E+01   0.000000E+00   7.305470E+00   9.722566E+00   0.000000E+00   5.810643E+00   1.292552E+01   0.000000E+00   5.462379E-01   7.964540E-01   0.000000E+00   8.925120E-01   9.965000E-01   0.000000E+00   1.966725E+00   7.727363E-01   0.000000E+00   2.300431E+00   9.961038E-01   0.000000E+00   3.125975E+00   5.957175E-01   0.000000E+00   4.581732E+00   5.980116E-01   0.000000E+00   5.363870E+00   8.806488E-01   0.000000E+00   6.179359E+00   9.802700E-01   0.000000E+00   7.610237E+00   8.172997E+00   0.000000E+00   7.087508E+00   1.005064E+01   0.000000E+00   6.072262E+00   1.625331E+01   0.000000E+00   5.446593E+00   1.241701E+01   0.000000E+00   7.961284E+00   4.374466E+00   0.000000E+00   1.998989E-01   9.965751E-01   0.000000E+00   5.464792E-01   1.196286E+00   0.000000E+00   1.584410E+00   9.956551E-01   0.000000E+00   1.942246E+00   1.173856E+00   0.000000E+00   2.700135E+00   9.961182E-01   0.000000E+00   4.217176E+00   7.617922E-01   0.000000E+00   4.900295E+00   8.391634E-01   0.000000E+00   5.934883E+00   1.296111E+00   0.000000E+00   6.674027E+00   3.912613E+00   0.000000E+00   6.778983E+00   7.318180E+00   0.000000E+00   7.452022E+00   1.262628E+01   0.000000E+00   7.465456E+00   1.617497E+01   0.000000E+00   4.567273E+00   1.465599E+01   0.000000E+00   3.368400E+00   1.513053E+01   0.000000E+00   2.001795E-01   1.395759E+00   0.000000E+00   1.238706E+00   1.195891E+00   0.000000E+00   1.601289E+00   1.394868E+00   0.000000E+00   2.500423E+00   1.342544E+00   0.000000E+00   3.105565E+00   9.941954E-01   0.000000E+00   3.545588E+00   8.482250E-01   0.000000E+00   5.103815E+00   1.183687E+00   0.000000E+00   6.630215E+00   1.208551E+00   0.000000E+00   7.328442E+00   9.203589E+00   0.000000E+00   7.874802E+00   1.386998E+01   0.000000E+00   7.311245E+00   1.577996E+01   0.000000E+00   3.797217E+00   1.512828E+01   0.000000E+00   6.849480E+00   1.667360E+01   0.000000E+00   4.036325E+00   1.459638E+01   0.000000E+00   5.470576E-01   1.596075E+00   0.000000E+00   8.931482E-01   1.396304E+00   0.000000E+00   1.239591E+00   1.595864E+00   0.000000E+00   1.959064E+00   1.573413E+00   0.000000E+00   2.904554E+00   1.339437E+00   0.000000E+00   3.411762E+00   1.250679E+00   0.000000E+00   4.535755E+00   1.004351E+00   0.000000E+00   6.351310E+00   1.494554E+00   0.000000E+00   6.385272E+00   2.502612E+00   0.000000E+00   6.763103E+00   8.405300E+00   0.000000E+00   7.013775E+00   1.504383E+01   0.000000E+00   7.337772E+00   1.684810E+01   0.000000E+00   4.281295E+00   1.503201E+01   0.000000E+00   3.428852E+00   1.357188E+01   0.000000E+00   5.141670E+00   1.534002E+01   0.000000E+00   5.650164E+00   1.413772E+01   0.000000E+00   5.045545E+00   1.320578E+01   0.000000E+00   2.004231E-01   1.795049E+00   0.000000E+00   8.935574E-01   1.796094E+00   0.000000E+00   1.586225E+00   1.794261E+00   0.000000E+00   2.320559E+00   1.744062E+00   0.000000E+00   2.717067E+00   1.692363E+00   0.000000E+00   3.983142E+00   1.085585E+00   0.000000E+00   5.539514E+00   1.239771E+00   0.000000E+00   6.017512E+00   2.669477E+00   0.000000E+00   7.680329E+00   6.334259E+00   0.000000E+00   6.964360E+00   4.846210E+00   0.000000E+00   7.525192E+00   7.774403E+00   0.000000E+00   6.462564E+00   1.601315E+01   0.000000E+00   5.777849E+00   1.654024E+01   0.000000E+00   3.607430E+00   1.477745E+01   0.000000E+00   3.579681E+00   1.398315E+01   0.000000E+00   1.999005E-01   2.194298E+00   0.000000E+00   5.470856E-01   1.995790E+00   0.000000E+00   1.240209E+00   1.995798E+00   0.000000E+00   1.943647E+00   1.972935E+00   0.000000E+00   2.291195E+00   2.170709E+00   0.000000E+00   3.210557E+00   1.596321E+00   0.000000E+00   4.739844E+00   1.350010E+00   0.000000E+00   6.026721E+00   1.724671E+00   0.000000E+00   6.167291E+00   3.139542E+00   0.000000E+00   5.752272E+00   2.010927E+00   0.000000E+00   6.349933E+00   3.538293E+00   0.000000E+00   7.953825E+00   1.632384E+01   0.000000E+00   5.402834E+00   1.502146E+01   0.000000E+00   4.188160E+00   1.543444E+01   0.000000E+00   5.819306E+00   1.463747E+01   0.000000E+00   1.992120E-01   2.593844E+00   0.000000E+00   5.461876E-01   2.395392E+00   0.000000E+00   1.587557E+00   2.193980E+00   0.000000E+00   1.942434E+00   2.377969E+00   0.000000E+00   2.683106E+00   2.090563E+00   0.000000E+00   3.063876E+00   1.968144E+00   0.000000E+00   3.771438E+00   1.424788E+00   0.000000E+00   5.242842E+00   1.558542E+00   0.000000E+00   5.636451E+00   1.627984E+00   0.000000E+00   5.546188E+00   2.352476E+00   0.000000E+00   6.390191E+00   4.392425E+00   0.000000E+00   7.984677E+00   1.466966E+01   0.000000E+00   4.840707E+00   1.505934E+01   0.000000E+00   5.538509E+00   1.621563E+01   0.000000E+00   5.219148E+00   1.401731E+01   0.000000E+00   5.179584E+00   1.359847E+01   0.000000E+00   1.996906E-01   2.997774E+00   0.000000E+00   5.445487E-01   2.794953E+00   0.000000E+00   8.937235E-01   2.196053E+00   0.000000E+00   1.240171E+00   2.395770E+00   0.000000E+00   2.287932E+00   2.578887E+00   0.000000E+00   2.677763E+00   2.489995E+00   0.000000E+00   3.570365E+00   1.770110E+00   0.000000E+00   4.301234E+00   1.328490E+00   0.000000E+00   4.879279E+00   1.725328E+00   0.000000E+00   5.354578E+00   1.943794E+00   0.000000E+00   5.615591E+00   2.748159E+00   0.000000E+00   6.199425E+00   5.886787E+00   0.000000E+00   7.510058E+00   1.720517E+01   0.000000E+00   6.787064E+00   1.457183E+01   0.000000E+00   3.974653E+00   1.419323E+01   0.000000E+00   7.623885E+00   1.653885E+01   0.000000E+00   3.818635E+00   1.349036E+01   0.000000E+00   1.990553E-01   3.409742E+00   0.000000E+00   5.416247E-01   3.204290E+00   0.000000E+00   8.925653E-01   2.596056E+00   0.000000E+00   1.589370E+00   2.593786E+00   0.000000E+00   1.942311E+00   2.781495E+00   0.000000E+00   3.058291E+00   2.367892E+00   0.000000E+00   4.081163E+00   1.677310E+00   0.000000E+00   4.480891E+00   1.688980E+00   0.000000E+00   4.530934E+00   2.091875E+00   0.000000E+00   4.990314E+00   2.109846E+00   0.000000E+00   5.740951E+00   3.130304E+00   0.000000E+00   7.516035E+00   1.434854E+01   0.000000E+00   6.033458E+00   3.798935E+00   0.000000E+00   6.352373E+00   8.239399E+00   0.000000E+00   2.012445E-01   3.818862E+00   0.000000E+00   5.429394E-01   3.612282E+00   0.000000E+00   8.863310E-01   3.001651E+00   0.000000E+00   1.239979E+00   2.795834E+00   0.000000E+00   1.587396E+00   2.993797E+00   0.000000E+00   2.291147E+00   2.978815E+00   0.000000E+00   3.437179E+00   2.146415E+00   0.000000E+00   3.879888E+00   2.022708E+00   0.000000E+00   3.064097E+00   2.767664E+00   0.000000E+00   3.416560E+00   2.545142E+00   0.000000E+00   4.759451E+00   2.439292E+00   0.000000E+00   5.164888E+00   2.469695E+00   0.000000E+00   7.734020E+00   1.199595E+01   0.000000E+00   7.432026E+00   1.172790E+01   0.000000E+00   5.867239E+00   1.515922E+01   0.000000E+00   6.355828E+00   1.452264E+01   0.000000E+00   4.840360E+00   1.615613E+01   0.000000E+00   2.006449E-01   4.232407E+00   0.000000E+00   5.498842E-01   4.014195E+00   0.000000E+00   8.868731E-01   3.405425E+00   0.000000E+00   1.233829E+00   3.198423E+00   0.000000E+00   1.940757E+00   3.181662E+00  
[...]
<PointData Scalars="Diameter" Vectors="Velocity">
<DataArray type="Float32" Name="Diameter" format="ascii">
  4.000000E-01   4.000000E-01   4.000000E-01   4.000000E-01   4.000000E-01   4.000000E-01   4.000000E-01   4.000000E-01   4.000000E-01   4.000000E-01   4.000000E-01   4.000000E-01   4.000000E-01   4.000000E-01   4.000000E-01   4.000000E-01   4.000000E-01   4.000000E-01   4.000000E-01   4.000000E-01   4.000000E-01   4.000000E-01   4.000000E-01   4.000000E-01   4.000000E-01   4.000000E-01   4.000000E-01   4.000000E-01   4.000000E-01   4.000000E-01   4.000000E-01   4.000000E-01   4.000000E-01   4.000000E-01   4.000000E-01   4.000000E-01   4.000000E-01   4.000000E-01   4.000000E-01   4.000000E-01   4.000000E-01   4.000000E-01   4.000000E-01   4.000000E-01   4.000000E-01   4.000000E-01   4.000000E-01   4.000000E-01   4.000000E-01   4.000000E-01   4.000000E-01   4.000000E-01   4.000000E-01   4.000000E-01   4.000000E-01   4.000000E-01   4.000000E-01   4.000000E-01   4.000000E-01   4.000000E-01   4.000000E-01   4.000000E-01   4.000000E-01   4.000000E-01   4.000000E-01   4.000000E-01   4.000000E-01   4.000000E-01   4.000000E-01   4.000000E-01   4.000000E-01   4.000000E-01   4.000000E-01   4.000000E-01   4.000000E-01   4.000000E-01   4.000000E-01   4.000000E-01   4.000000E-01   4.000000E-01   4.000000E-01   4.000000E-01   4.000000E-01   4.000000E-01   4.000000E-01   4.000000E-01   4.000000E-01   4.000000E-01   4.000000E-01   4.000000E-01   4.000000E-01   4.000000E-01   4.000000E-01   4.000000E-01   4.000000E-01   4.000000E-01   4.000000E-01   4.000000E-01   4.000000E-01   4.000000E-01   4.000000E-01   4.000000E-01   4.000000E-01   4.000000E-01   4.000000E-01   4.000000E-01   4.000000E-01   4.000000E-01   4.000000E-01   4.000000E-01   4.000000E-01   4.000000E-01   4.000000E-01   4.000000E-01   4.000000E-01   4.000000E-01   4.000000E-01   4.000000E-01   4.000000E-01   4.000000E-01   4.000000E-01   4.000000E-01   4.000000E-01   4.000000E-01   4.000000E-01   4.000000E-01   4.000000E-01   4.000000E-01   4.000000E-01   4.000000E-01   4.000000E-01   4.000000E-01   4.000000E-01   4.000000E-01   4.000000E-01   4.000000E-01   4.000000E-01   4.000000E-01   4.000000E-01   4.000000E-01   4.000000E-01   4.000000E-01   4.000000E-01   4.000000E-01   4.000000E-01   4.000000E-01   4.000000E-01   4.000000E-01   4.000000E-01   4.000000E-01   4.000000E-01   4.000000E-01   4.000000E-01   4.000000E-01   4.000000E-01   4.000000E-01   4.000000E-01   4.000000E-01   4.000000E-01   4.000000E-01   4.000000E-01   4.000000E-01   4.000000E-01   4.000000E-01   4.000000E-01   4.000000E-01   4.000000E-01   4.000000E-01   4.000000E-01   4.000000E-01   4.000000E-01   4.000000E-01   4.000000E-01   4.000000E-01   4.000000E-01   4.000000E-01   4.000000E-01   4.000000E-01   4.000000E-01   4.000000E-01   4.000000E-01   4.000000E-01   4.000000E-01   4.000000E-01   4.000000E-01   4.000000E-01   4.000000E-01   4.000000E-01   4.000000E-01   4.000000E-01   4.000000E-01   4.000000E-01   4.000000E-01   4.000000E-01   4.000000E-01   4.000000E-01   4.000000E-01   4.000000E-01   4.000000E-01   4.000000E-01   4.000000E-01   4.000000E-01   4.000000E-01   4.000000E-01   4.000000E-01   4.000000E-01   4.000000E-01   4.000000E-01   4.000000E-01   4.000000E-01   4.000000E-01   4.000000E-01   4.000000E-01   4.000000E-01   4.000000E-01   4.000000E-01   4.000000E-01   4.000000E-01   4.000000E-01   4.000000E-01   4.000000E-01   4.000000E-01   4.000000E-01   4.000000E-01   4.000000E-01   4.000000E-01   4.000000E-01   4.000000E-01   4.000000E-01   4.000000E-01   4.000000E-01   4.000000E-01   4.000000E-01   4.000000E-01   4.000000E-01   4.000000E-01   4.000000E-01   4.000000E-01   4.000000E-01   4.000000E-01   4.000000E-01   4.000000E-01   4.000000E-01   4.000000E-01   4.000000E-01   4.000000E-01   4.000000E-01   4.000000E-01   4.000000E-01   4.000000E-01   4.000000E-01   4.000000E-01   4.000000E-01   4.000000E-01   4.000000E-01   4.000000E-01   4.000000E-01   4.000000E-01   4.000000E-01   4.000000E-01   4.000000E-01   4.000000E-01   4.000000E-01   4.000000E-01   4.000000E-01   4.000000E-01   4.000000E-01   4.000000E-01   4.000000E-01   4.000000E-01   4.000000E-01   4.000000E-01   4.000000E-01   4.000000E-01   4.000000E-01   4.000000E-01   4.000000E-01   4.000000E-01   4.000000E-01   4.000000E-01   4.000000E-01   4.000000E-01   4.000000E-01   4.000000E-01   4.000000E-01   4.000000E-01   4.000000E-01   4.000000E-01   4.000000E-01   4.000000E-01   4.000000E-01   4.000000E-01   4.000000E-01   4.000000E-01   4.000000E-01   4.000000E-01   4.000000E-01   4.000000E-01   4.000000E-01   4.000000E-01   4.000000E-01   4.000000E-01   4.000000E-01   4.000000E-01   4.000000E-01   4.000000E-01   4.000000E-01   4.000000E-01   4.000000E-01   4.000000E-01   4.000000E-01   4.000000E-01   4.000000E-01   4.000000E-01   4.000000E-01   4.000000E-01   4.000000E-01   4.000000E-01   4.000000E-01   4.000000E-01   4.000000E-01   4.000000E-01   4.000000E-01   4.000000E-01   4.000000E-01   4.000000E-01   4.000000E-01   4.000000E-01   4.000000E-01   4.000000E-01   4.000000E-01   4.000000E-01   4.000000E-01   4.000000E-01   4.000000E-01   4.000000E-01   4.000000E-01   4.000000E-01   4.000000E-01   4.000000E-01   4.000000E-01   4.000000E-01   4.000000E-01   4.000000E-01   4.000000E-01   4.000000E-01   4.000000E-01   4.000000E-01   4.000000E-01   4.000000E-01   4.000000E-01   4.000000E-01   4.000000E-01   4.000000E-01   4.000000E-01   4.000000E-01   4.000000E-01   4.000000E-01   4.000000E-01   4.000000E-01   4.000000E-01   4.000000E-01   4.000000E-01   4.000000E-01   4.000000E-01   4.000000E-01   4.000000E-01   4.000000E-01   4.000000E-01   4.000000E-01   4.000000E-01   4.000000E-01   4.000000E-01   4.000000E-01   4.000000E-01   4.000000E-01   4.000000E-01   4.000000E-01   4.000000E-01   4.000000E-01   4.000000E-01   4.000000E-01   4.000000E-01   4.000000E-01   4.000000E-01   4.000000E-01   4.000000E-01   4.000000E-01   4.000000E-01   4.000000E-01   4.000000E-01   4.000000E-01   4.000000E-01   4.000000E-01   4.000000E-01   4.000000E-01   4.000000E-01   4.000000E-01   4.000000E-01   4.000000E-01   4.000000E-01   4.000000E-01   4.000000E-01   4.000000E-01   4.000000E-01   4.000000E-01   4.000000E-01   4.000000E-01   4.000000E-01   4.000000E-01   4.000000E-01   4.000000E-01   4.000000E-01   4.000000E-01   4.000000E-01   4.000000E-01   4.000000E-01   4.000000E-01   4.000000E-01   4.000000E-01   4.000000E-01   4.000000E-01   4.000000E-01   4.000000E-01   4.000000E-01   4.000000E-01   4.000000E-01   4.000000E-01   4.000000E-01   4.000000E-01   4.000000E-01   4.000000E-01   4.000000E-01   4.000000E-01   4.000000E-01   4.000000E-01   4.000000E-01   4.000000E-01   4.000000E-01   4.000000E-01   4.000000E-01   4.000000E-01   4.000000E-01   4.000000E-01   4.000000E-01   4.000000E-01   4.000000E-01   4.000000E-01   4.000000E-01   4.000000E-01   4.000000E-01   4.000000E-01   4.000000E-01   4.000000E-01   4.000000E-01   4.000000E-01   4.000000E-01   4.000000E-01   4.000000E-01   4.000000E-01   4.000000E-01   4.000000E-01   4.000000E-01   4.000000E-01   4.000000E-01   4.000000E-01   4.000000E-01   4.000000E-01   4.000000E-01   4.000000E-01   4.000000E-01   4.000000E-01   4.000000E-01   4.000000E-01   4.000000E-01   4.000000E-01   4.000000E-01   4.000000E-01   4.000000E-01   4.000000E-01   4.000000E-01   4.000000E-01   4.000000E-01   4.000000E-01   4.000000E-01   4.000000E-01   4.000000E-01   4.000000E-01   4.000000E-01   4.000000E-01   4.000000E-01   4.000000E-01   4.000000E-01   4.000000E-01   4.000000E-01   4.000000E-01   4.000000E-01   4.000000E-01   4.000000E-01   4.000000E-01   4.000000E-01   4.000000E-01   4.000000E-01   4.000000E-01   4.000000E-01   4.000000E-01   4.000000E-01   4.000000E-01   4.000000E-01   4.000000E-01   4.000000E-01   4.000000E-01   4.000000E-01   4.000000E-01   4.000000E-01   4.000000E-01   4.000000E-01   4.000000E-01   4.000000E-01   4.000000E-01   4.000000E-01   4.000000E-01   4.000000E-01   4.000000E-01   4.000000E-01   4.000000E-01   4.000000E-01   4.000000E-01   4.000000E-01   4.000000E-01   4.000000E-01   4.000000E-01   4.000000E-01   4.000000E-01   4.000000E-01   4.000000E-01   4.000000E-01   4.000000E-01   4.000000E-01   4.000000E-01   4.000000E-01   4.000000E-01   4.000000E-01   4.000000E-01   4.000000E-01   4.000000E-01   4.000000E-01   4.000000E-01   4.000000E-01   4.000000E-01   4.000000E-01   4.000000E-01   4.000000E-01   4.000000E-01   4.000000E-01   4.000000E-01   4.000000E-01   4.000000E-01   4.000000E-01   4.000000E-01   4.000000E-01   4.000000E-01   4.000000E-01   4.000000E-01   4.000000E-01   4.000000E-01   4.000000E-01   4.000000E-01   4.000000E-01   4.000000E-01   4.000000E-01   4.000000E-01   4.000000E-01   4.000000E-01   4.000000E-01   4.000000E-01   4.000000E-01   4.000000E-01   4.000000E-01   4.000000E-01   4.000000E-01   4.000000E-01   4.000000E-01   4.000000E-01   4.000000E-01   4.000000E-01   4.000000E-01   4.000000E-01   4.000000E-01   4.000000E-01   4.000000E-01   4.000000E-01   4.000000E-01   4.000000E-01   4.000000E-01   4.000000E-01   4.000000E-01   4.000000E-01   4.000000E-01   4.000000E-01   4.000000E-01   4.000000E-01   4.000000E-01   4.000000E-01   4.000000E-01   4.000000E-01   4.000000E-01   4.000000E-01   4.000000E-01   4.000000E-01   4.000000E-01   4.000000E-01   4.000000E-01   4.000000E-01   4.000000E-01   4.000000E-01   4.000000E-01   4.000000E-01   4.000000E-01   4.000000E-01   4.000000E-01   4.000000E-01   4.000000E-01   4.000000E-01   4.000000E-01   4.000000E-01   4.000000E-01   4.000000E-01   4.000000E-01   4.000000E-01   4.000000E-01   4.000000E-01   4.000000E-01   4.000000E-01   4.000000E-01   4.000000E-01   4.000000E-01   4.000000E-01   4.000000E-01   4.000000E-01   4.000000E-01   4.000000E-01   4.000000E-01   4.000000E-01   4.000000E-01   4.000000E-01   4.000000E-01   4.000000E-01   4.000000E-01   4.000000E-01   4.000000E-01   4.000000E-01   4.000000E-01   4.000000E-01   4.000000E-01   4.000000E-01   4.000000E-01   4.000000E-01   4.000000E-01   4.000000E-01   4.000000E-01   4.000000E-01   4.000000E-01   4.000000E-01   4.000000E-01   4.000000E-01   4.000000E-01   4.000000E-01   4.000000E-01   4.000000E-01   4.000000E-01   4.000000E-01   4.000000E-01   4.000000E-01   4.000000E-01   4.000000E-01   4.000000E-01   4.000000E-01   4.000000E-01   4.000000E-01   4.000000E-01   4.000000E-01   4.000000E-01   4.000000E-01   4.000000E-01   4.000000E-01   4.000000E-01   4.000000E-01   4.000000E-01   4.000000E-01   4.000000E-01   4.000000E-01   4.000000E-01   4.000000E-01   4.000000E-01   4.000000E-01   4.000000E-01   4.000000E-01   4.000000E-01   4.000000E-01   4.000000E-01   4.000000E-01   4.000000E-01   4.000000E-01   4.000000E-01   4.000000E-01   4.000000E-01   4.000000E-01   4.000000E-01   4.000000E-01   4.000000E-01   4.000000E-01   4.000000E-01   4.000000E-01   4.000000E-01   4.000000E-01   4.000000E-01   4.000000E-01   4.000000E-01   4.000000E-01   4.000000E-01   4.000000E-01   4.000000E-01   4.000000E-01   4.000000E-01   4.000000E-01   4.000000E-01   4.000000E-01   4.000000E-01   4.000000E-01   4.000000E-01   4.000000E-01   4.000000E-01   4.000000E-01   4.000000E-01   4.000000E-01   4.000000E-01   4.000000E-01   4.000000E-01   4.000000E-01   4.000000E-01   4.000000E-01   4.000000E-01   4.000000E-01   4.000000E-01   4.000000E-01   4.000000E-01   4.000000E-01   4.000000E-01   4.000000E-01   4.000000E-01   4.000000E-01   4.000000E-01   4.000000E-01   4.000000E-01   4.000000E-01   4.000000E-01   4.000000E-01   4.000000E-01   4.000000E-01   4.000000E-01   4.000000E-01   4.000000E-01   4.000000E-01   4.000000E-01   4.000000E-01   4.000000E-01   4.000000E-01   4.000000E-01   4.000000E-01   4.000000E-01   4.000000E-01   4.000000E-01   4.000000E-01   4.000000E-01   4.000000E-01   4.000000E-01   4.000000E-01   4.000000E-01   4.000000E-01   4.000000E-01   4.000000E-01   4.000000E-01   4.000000E-01   4.000000E-01   4.000000E-01   4.000000E-01   4.000000E-01   4.000000E-01   4.000000E-01   4.000000E-01   4.000000E-01   4.000000E-01   4.000000E-01   4.000000E-01   4.000000E-01   4.000000E-01   4.000000E-01   4.000000E-01   4.000000E-01   4.000000E-01   4.000000E-01   4.000000E-01   4.000000E-01   4.000000E-01   4.000000E-01   4.000000E-01   4.000000E-01   4.000000E-01   4.000000E-01   4.000000E-01   4.000000E-01   4.000000E-01   4.000000E-01   4.000000E-01   4.000000E-01   4.000000E-01   4.000000E-01   4.000000E-01   4.000000E-01   4.000000E-01   4.000000E-01   4.000000E-01   4.000000E-01   4.000000E-01   4.000000E-01   4.000000E-01   4.000000E-01   4.000000E-01   4.000000E-01   4.000000E-01   4.000000E-01   4.000000E-01   4.000000E-01   4.000000E-01   4.000000E-01   4.000000E-01   4.000000E-01   4.000000E-01   4.000000E-01   4.000000E-01   4.000000E-01   4.000000E-01   4.000000E-01   4.000000E-01   4.000000E-01   4.000000E-01   4.000000E-01   4.000000E-01   4.000000E-01   4.000000E-01   4.000000E-01   4.000000E-01   4.000000E-01   4.000000E-01   4.000000E-01   4.000000E-01   4.000000E-01   4.000000E-01   4.000000E-01   4.000000E-01   4.000000E-01   4.000000E-01   4.000000E-01   4.000000E-01   4.000000E-01   4.000000E-01   4.000000E-01   4.000000E-01   4.000000E-01   4.000000E-01   4.000000E-01   4.000000E-01   4.000000E-01   4.000000E-01   4.000000E-01   4.000000E-01   4.000000E-01   4.000000E-01   4.000000E-01   4.000000E-01   4.000000E-01   4.000000E-01   4.000000E-01   4.000000E-01   4.000000E-01   4.000000E-01   4.000000E-01   4.000000E-01   4.000000E-01   4.000000E-01   4.000000E-01   4.000000E-01   4.000000E-01   4.000000E-01   4.000000E-01   4.000000E-01   4.000000E-01   4.000000E-01   4.000000E-01   4.000000E-01   4.000000E-01   4.000000E-01   4.000000E-01   4.000000E-01   4.000000E-01   4.000000E-01   4.000000E-01   4.000000E-01   4.000000E-01   4.000000E-01   4.000000E-01   4.000000E-01   4.000000E-01   4.000000E-01   4.000000E-01   4.000000E-01   4.000000E-01   4.000000E-01   4.000000E-01   4.000000E-01   4.000000E-01   4.000000E-01   4.000000E-01   4.000000E-01   4.000000E-01   4.000000E-01   4.000000E-01   4.000000E-01   4.000000E-01   4.000000E-01   4.000000E-01   4.000000E-01   4.000000E-01   4.000000E-01   4.000000E-01   4.000000E-01   4.000000E-01   4.000000E-01   4.000000E-01   4.000000E-01   4.000000E-01   4.000000E-01   4.000000E-01   4.000000E-01   4.000000E-01   4.000000E-01   4.000000E-01   4.000000E-01   4.000000E-01   4.000000E-01   4.000000E-01   4.000000E-01   4.000000E-01   4.000000E-01   4.000000E-01   4.000000E-01   4.000000E-01   4.000000E-01   4.000000E-01   4.000000E-01   4.000000E-01   4.000000E-01   4.000000E-01   4.000000E-01   4.000000E-01   4.000000E-01   4.000000E-01   4.000000E-01   4.000000E-01   4.000000E-01   4.000000E-01   4.000000E-01   4.000000E-01   4.000000E-01   4.000000E-01   4.000000E-01   4.000000E-01   4.000000E-01   4.000000E-01   4.000000E-01   4.000000E-01   4.000000E-01   4.000000E-01   4.000000E-01   4.000000E-01   4.000000E-01   4.000000E-01   4.000000E-01   4.000000E-01   4.000000E-01   4.000000E-01   4.000000E-01   4.000000E-01   4.000000E-01   4.000000E-01   4.000000E-01   4.000000E-01   4.000000E-01   4.000000E-01   4.000000E-01   4.000000E-01   4.000000E-01   4.000000E-01   4.000000E-01   4.000000E-01   4.000000E-01   4.000000E-01   4.000000E-01   4.000000E-01   4.000000E-01   4.000000E-01   4.000000E-01   4.000000E-01   4.000000E-01   4.000000E-01   4.000000E-01   4.000000E-01   4.000000E-01   4.000000E-01   4.000000E-01   4.000000E-01   4.000000E-01   4.000000E-01   4.000000E-01   4.000000E-01   4.000000E-01   4.000000E-01   4.000000E-01   4.000000E-01   4.000000E-01   4.000000E-01   4.000000E-01   4.000000E-01   4.000000E-01   4.000000E-01   4.000000E-01   4.000000E-01   4.000000E-01   4.000000E-01   4.000000E-01   4.000000E-01   4.000000E-01   4.000000E-01   4.000000E-01   4.000000E-01   4.000000E-01   4.000000E-01   4.000000E-01   4.000000E-01   4.000000E-01   4.000000E-01   4.000000E-01   4.000000E-01   4.000000E-01   4.000000E-01   4.000000E-01   4.000000E-01   4.000000E-01   4.000000E-01   4.000000E-01   4.000000E-01   4.000000E-01   4.000000E-01   4.000000E-01   4.000000E-01   4.000000E-01   4.000000E-01   4.000000E-01   4.000000E-01   4.000000E-01   4.000000E-01   4.000000E-01   4.000000E-01   4.000000E-01   4.000000E-01   4.000000E-01   4.000000E-01   4.000000E-01   4.000000E-01   4.000000E-01   4.000000E-01   4.000000E-01   4.000000E-01   4.000000E-01   4.000000E-01   4.000000E-01   4.000000E-01   4.000000E-01   4.000000E-01   4.000000E-01   4.000000E-01   4.000000E-01   4.000000E-01   4.000000E-01   4.000000E-01   4.000000E-01   4.000000E-01   4.000000E-01   4.000000E-01   4.000000E-01   4.000000E-01   4.000000E-01   4.000000E-01   4.000000E-01   4.000000E-01   4.000000E-01   4.000000E-01   4.000000E-01   4.000000E-01   4.000000E-01   4.000000E-01   4.000000E-01   4.000000E-01   4.000000E-01   4.000000E-01   4.000000E-01   4.000000E-01   4.000000E-01   4.000000E-01   4.000000E-01   4.000000E-01   4.000000E-01   4.000000E-01   4.000000E-01   4.000000E-01   4.000000E-01   4.000000E-01   4.000000E-01   4.000000E-01   4.000000E-01   4.000000E-01   4.000000E-01   4.000000E-01   4.000000E-01   4.000000E-01   4.000000E-01   4.000000E-01   4.000000E-01   4.000000E-01   4.000000E-01   4.000000E-01   4.000000E-01   4.000000E-01   4.000000E-01   4.000000E-01   4.000000E-01   4.000000E-01   4.000000E-01   4.000000E-01   4.000000E-01   4.000000E-01   4.000000E-01   4.000000E-01   4.000000E-01   4.000000E-01   4.000000E-01   4.000000E-01   4.000000E-01   4.000000E-01   4.000000E-01   4.000000E-01   4.000000E-01   4.000000E-01   4.000000E-01   4.000000E-01   4.000000E-01   4.000000E-01   4.000000E-01   4.000000E-01   4.000000E-01   4.000000E-01   4.000000E-01   4.000000E-01   4.000000E-01   4.000000E-01   4.000000E-01   4.000000E-01   4.000000E-01   4.000000E-01   4.000000E-01   4.000000E-01   4.000000E-01   4.000000E-01   4.000000E-01   4.000000E-01   4.000000E-01   4.000000E-01   4.000000E-01   4.000000E-01   4.000000E-01   4.000000E-01   4.000000E-01   4.000000E-01   4.000000E-01   4.000000E-01   4.000000E-01   4.000000E-01   4.000000E-01   4.000000E-01   4.000000E-01   4.000000E-01   4.000000E-01   4.000000E-01   4.000000E-01   4.000000E-01   4.000000E-01   4.000000E-01   4.000000E-01   4.000000E-01   4.000000E-01   4.000000E-01   4.000000E-01   4.000000E-01   4.000000E-01   4.000000E-01   4.000000E-01   4.000000E-01   4.000000E-01   4.000000E-01   4.000000E-01   4.000000E-01   4.000000E-01   4.000000E-01   4.000000E-01   4.000000E-01   4.000000E-01   4.000000E-01   4.000000E-01   4.000000E-01   4.000000E-01   4.000000E-01   4.000000E-01   4.000000E-01   4.000000E-01   4.000000E-01   4.000000E-01   4.000000E-01   4.000000E-01   4.000000E-01   4.000000E-01   4.000000E-01   4.000000E-01   4.000000E-01   4.000000E-01   4.000000E-01   4.000000E-01   4.000000E-01   4.000000E-01   4.000000E-01   4.000000E-01   4.000000E-01   4.000000E-01   4.000000E-01   4.000000E-01   4.000000E-01   4.000000E-01   4.000000E-01   4.000000E-01   4.000000E-01   4.000000E-01   4.000000E-01   4.000000E-01   4.000000E-01   4.000000E-01   4.000000E-01   4.000000E-01   4.000000E-01   4.000000E-01   4.000000E-01   4.000000E-01   4.000000E-01   4.000000E-01   4.000000E-01   4.000000E-01   4.000000E-01   4.000000E-01   4.000000E-01   4.000000E-01   4.000000E-01   4.000000E-01   4.000000E-01   4.000000E-01   4.000000E-01   4.000000E-01   4.000000E-01   4.000000E-01   4.000000E-01   4.000000E-01   4.000000E-01   4.000000E-01   4.000000E-01   4.000000E-01   4.000000E-01   4.000000E-01   4.000000E-01   4.000000E-01   4.000000E-01   4.000000E-01   4.000000E-01   4.000000E-01   4.000000E-01   4.000000E-01   4.000000E-01   4.000000E-01   4.000000E-01   4.000000E-01   4.000000E-01   4.000000E-01   4.000000E-01   4.000000E-01   4.000000E-01   4.000000E-01   4.000000E-01   4.000000E-01   4.000000E-01   4.000000E-01   4.000000E-01   4.000000E-01   4.000000E-01   4.000000E-01   4.000000E-01   4.000000E-01   4.000000E-01   4.000000E-01   4.000000E-01   