<?xml version="1.0"?>
<!-- Time =  9.9910292694767644E-02s -->
<VTKFile type="PolyData" version="0.1" byte_order="LittleEndian">
<PolyData>
<Piece NumberOfPoints="0000028800" NumberOfVerts="0" NumberOfLines="0" NumberOfStrips="0" NumberOfPolys="0">
<Points>
<DataArray type="Float32" Name="Position" NumberOfComponents="3" format="ascii">
  4.359537E-01   1.986519E-01   1.978845E-01   1.132081E+00   1.979848E-01   2.058765E-01   1.557118E+00   1.959036E-01   7.368932E-01   1.842052E+00   1.994347E-01   4.595948E-01   2.585001E+00   2.082303E-01   9.815772E-01   3.214777E+00   2.002437E-01   6.176661E-01   3.874958E+00   1.956734E-01   8.547190E-01   4.137793E+00   1.966750E-01   5.259368E-01   4.595005E+00   2.078879E-01   5.181931E-01   5.656253E+00   2.041620E-01   7.653893E-01   6.048020E+00   2.327277E-01   6.530059E-01   6.904639E+00   1.467716E+00   8.620716E-01   7.204605E+00   2.704254E+00   9.924296E-01   6.659326E+00   2.842891E+00   6.950262E-01   6.615365E+00   5.867663E+00   9.860385E-01   7.047867E+00   4.371948E+00   6.064506E-01   7.329596E+00   3.325183E+00   7.810817E-01   7.733049E+00   5.650428E+00   1.149141E+00   7.328667E+00   5.961847E+00   1.540130E+00   8.294217E+00   1.155472E+00   5.358185E-01   9.278507E+00   1.995564E-01   5.599782E-01   9.829232E+00   1.976024E-01   5.408909E-01   1.046476E+01   1.964827E-01   2.286978E-01   1.098314E+01   2.069954E-01   5.999867E-01   1.120014E+01   2.005161E-01   9.378629E-01   1.189527E+01   2.000397E-01   5.378844E-01   1.246499E+01   1.980641E-01   9.356254E-01   1.322758E+01   1.999191E-01   6.039836E-01   1.365174E+01   1.938562E-01   3.593397E-01   1.401632E+01   2.004508E-01   1.957977E-01   1.442186E+01   1.973212E-01   1.981601E-01   1.982058E-01   1.949801E-01   5.147698E-01   1.069419E+00   1.876624E-01   6.300674E-01   1.585562E+00   4.286530E-01   1.061114E+00   1.875735E+00   4.307257E-01   7.832494E-01   2.196106E+00   2.007067E-01   8.583843E-01   2.981243E+00   1.944164E-01   9.543254E-01   3.406602E+00   2.008180E-01   2.273376E-01   3.807769E+00   1.996910E-01   2.032999E-01   4.354758E+00   2.769972E-01   2.020433E-01   5.238729E+00   2.027649E-01   6.799273E-01   5.526992E+00   1.952198E-01   2.998395E-01   6.350048E+00   2.088637E-01   3.149858E-01   6.985832E+00   2.184944E+00   8.807918E-01   6.934734E+00   3.002765E+00   2.704141E-01   7.129829E+00   1.092925E+01   1.504729E+00   7.534298E+00   4.667931E+00   7.563382E-01   7.071462E+00   3.409486E+00   2.596115E-01   6.705956E+00   1.243763E+01   2.360113E+00   7.353543E+00   2.604883E+00   4.525481E-01   7.123655E+00   1.838971E+00   1.114995E+00   8.295445E+00   4.891295E-01   2.432361E-01   9.573482E+00   2.027934E-01   2.349243E-01   9.964914E+00   3.884652E-01   2.152359E-01   1.086042E+01   2.118260E-01   1.943683E-01   1.128848E+01   1.956664E-01   2.267540E-01   1.168872E+01   1.960981E-01   1.980499E-01   1.202973E+01   1.995395E-01   9.113512E-01   1.272258E+01   1.965692E-01   6.270551E-01   1.310639E+01   2.067492E-01   9.833076E-01   1.361194E+01   1.956856E-01   7.624246E-01   1.398938E+01   1.923219E-01   5.899104E-01   1.479488E+01   1.993163E-01   5.738044E-01   6.506438E-01   2.001122E-01   5.375318E-01   1.538162E+00   1.961454E-01   2.004758E-01   1.315593E+00   5.085078E-01   6.993079E-01   2.146156E+00   2.173051E-01   1.989264E-01   2.407193E+00   2.768738E-01   5.312957E-01   2.608770E+00   1.956599E-01   1.965227E-01   3.585864E+00   5.572824E-01   2.041561E-01   4.253361E+00   3.967428E-01   8.942872E-01   4.897431E+00   2.043525E-01   1.992057E-01   5.375343E+00   2.499813E-01   1.174273E+00   5.943624E+00   2.809450E-01   2.620304E-01   6.706901E+00   5.503866E-01   1.078592E+00   6.725634E+00   6.093012E-01   2.051653E-01   5.539320E+00   5.062104E+00   1.294016E+00   5.918674E+00   1.915269E+00   6.069147E-01   7.683692E+00   4.436464E+00   1.188971E+00   7.848064E+00   2.758806E+00   6.616459E-01   6.973277E+00   8.714342E+00   2.221409E+00   8.069358E+00   1.503585E+00   2.902133E-01   7.998057E+00   1.079806E+00   2.286284E-01   9.092059E+00   2.058801E-01   2.102105E-01   9.602881E+00   1.955096E-01   9.021759E-01   1.021251E+01   4.145154E-01   5.497786E-01   1.071701E+01   1.979495E-01   9.119464E-01   1.147610E+01   2.945961E-01   6.609654E-01   1.250430E+01   1.977666E-01   2.154784E-01   1.229628E+01   1.948256E-01   5.620312E-01   1.328642E+01   2.117620E-01   2.016554E-01   1.350968E+01   5.137035E-01   5.485318E-01   1.374829E+01   5.432032E-01   1.959238E-01   1.438991E+01   1.993621E-01   5.956967E-01   2.257089E-01   5.247245E-01   2.911664E-01   7.847536E-01   3.940153E-01   1.984358E-01   1.330928E+00   5.429057E-01   2.004465E-01   1.822918E+00   4.995186E-01   1.976452E-01   2.391460E+00   5.262120E-01   1.968584E-01   2.809568E+00   2.708920E-01   5.986830E-01   3.003737E+00   1.996201E-01   1.979491E-01   3.789656E+00   5.025566E-01   1.102504E+00   4.840662E+00   2.016553E-01   8.302345E-01   5.171330E+00   5.159754E-01   9.175632E-01   5.585196E+00   6.162930E-01   8.866849E-01   6.434876E+00   2.747686E-01   7.634357E-01   6.555391E+00   1.272415E+00   1.254067E+00   6.749880E+00   2.457759E+00   7.253677E-01   6.825402E+00   6.321400E+00   1.846553E+00   7.898301E+00   3.513357E+00   2.124629E-01   7.696572E+00   3.070069E+00   2.295476E-01   7.971836E+00   7.406893E+00   2.281867E+00   7.650725E+00   3.469825E+00   1.181050E+00   8.255045E+00   1.541644E+00   7.303252E-01   8.848259E+00   2.186361E-01   5.859036E-01   9.463775E+00   5.201653E-01   1.138142E+00   9.846715E+00   5.481019E-01   8.052803E-01   1.039772E+01   3.850390E-01   1.061214E+00   1.090006E+01   4.890352E-01   1.114540E+00   1.174487E+01   5.700138E-01   5.434205E-01   1.208708E+01   5.350882E-01   1.118976E+00   1.289448E+01   2.938453E-01   2.061047E-01   1.335270E+01   6.072024E-01   1.957981E-01   1.398335E+01   8.684811E-01   2.297283E-01   1.421841E+01   5.443163E-01   2.017379E-01   1.480088E+01   3.262513E-01   1.984695E-01   5.932807E-01   2.624069E-01   9.311505E-01   9.581543E-01   5.510147E-01   5.304183E-01   1.634313E+00   7.514048E-01   8.076311E-01   2.107536E+00   5.413757E-01   4.744671E-01   2.616460E+00   6.236010E-01   5.406342E-01   2.803552E+00   5.460626E-01   1.996868E-01   3.610934E+00   3.449838E-01   5.523534E-01   4.442968E+00   5.769533E-01   5.855479E-01   4.714447E+00   5.562612E-01   2.372984E-01   5.194391E+00   4.455384E-01   3.567677E-01   5.820447E+00   5.383584E-01   5.427188E-01   6.451378E+00   7.750781E-01   6.227100E-01   6.449365E+00   1.076608E+00   2.703982E-01   7.554068E+00   7.349755E+00   1.958578E+00   7.084190E+00   5.379154E+00   9.432912E-01   7.687426E+00   6.924925E+00   1.481708E+00   8.775433E+00   5.210559E+00   1.984098E+00   7.799970E+00   1.880995E+00   1.973191E-01   8.205672E+00   2.991610E+00   8.716723E-01   8.779373E+00   4.834150E-01   2.488567E-01   9.309806E+00   5.590820E-01   2.067632E-01   9.557498E+00   4.893988E-01   5.144059E-01   1.034664E+01   5.706326E-01   1.998914E-01   1.062052E+01   3.834344E-01   5.735684E-01   1.100572E+01   5.994634E-01   5.716262E-01   1.210565E+01   2.067314E-01   1.990052E-01   1.254289E+01   5.331628E-01   7.340074E-01   1.297433E+01   5.178416E-01   5.478546E-01   1.324448E+01   8.126881E-01   5.270221E-01   1.390874E+01   5.763651E-01   5.566418E-01   1.479849E+01   3.416883E-01   9.481744E-01   2.431515E-01   5.451075E-01   6.946738E-01   6.312423E-01   6.210581E-01   7.454285E-01   9.476272E-01   8.353346E-01   9.108707E-01   1.937052E+00   8.875968E-01   5.617038E-01   2.341698E+00   9.082875E-01   5.572015E-01   2.903023E+00   9.031070E-01   5.918949E-01   3.185151E+00   5.131932E-01   3.510527E-01   3.993413E+00   5.499338E-01   2.443816E-01   4.351619E+00   7.214035E-01   1.986871E-01   5.179892E+00   8.352696E-01   1.933789E-01   5.575323E+00   5.868006E-01   2.062721E-01   6.241793E+00   5.901912E-01   1.981659E-01   6.185531E+00   1.539743E+00   6.131242E-01   6.975507E+00   2.357490E+00   2.571118E-01   7.623267E+00   3.869803E+00   2.322311E-01   7.170316E+00   6.949724E+00   1.267926E+00   8.425657E+00   4.286157E+00   9.073526E-01   7.298926E+00   3.864408E+00   8.319612E-01   8.552545E+00   1.284174E+00   2.066356E-01   8.579408E+00   8.337950E-01   2.643824E-01   9.140562E+00   5.788715E-01   6.174771E-01   9.692970E+00   6.950667E-01   2.033182E-01   9.993904E+00   7.614313E-01   4.870631E-01   1.074321E+01   6.142006E-01   2.112392E-01   1.113880E+01   5.683922E-01   1.984187E-01   1.153863E+01   5.627462E-01   1.993989E-01   1.227310E+01   5.927923E-01   4.447050E-01   1.260226E+01   5.812863E-01   2.016756E-01   1.284958E+01   7.000743E-01   9.288639E-01   1.399537E+01   9.521810E-01   6.410720E-01   1.445256E+01   5.744165E-01   7.103671E-01   1.480393E+01   5.987399E-01   5.316346E-01   5.667268E-01   7.320938E-01   1.973820E-01   9.794508E-01   7.552966E-01   1.943764E-01   1.596519E+00   7.490900E-01   4.117489E-01   2.136228E+00   8.304422E-01   1.996946E-01   2.531261E+00   8.963705E-01   1.985296E-01   3.050619E+00   8.567004E-01   2.027027E-01   3.949312E+00   5.316772E-01   6.470067E-01   4.175966E+00   8.804753E-01   6.120992E-01   4.862242E+00   6.480982E-01   6.125196E-01   5.273074E+00   8.657856E-01   6.896339E-01   5.815692E+00   9.102587E-01   2.298545E-01   6.095486E+00   1.230138E+00   2.065417E-01   6.532548E+00   1.496608E+00   2.868225E-01   6.057229E+00   2.955759E+00   1.945464E-01   6.164639E+00   5.033729E+00   1.688177E+00   7.957322E+00   4.068020E+00   4.633821E-01   7.930242E+00   3.202017E+00   5.274755E-01   8.786433E+00   2.101803E+00   9.854658E-01   8.797613E+00   1.072546E+00   5.722865E-01   8.682491E+00   6.782215E-01   6.577490E-01   8.988593E+00   8.229662E-01   2.926785E-01   9.496106E+00   7.661113E-01   7.932127E-01   1.046156E+01   7.602169E-01   5.272196E-01   1.069485E+01   6.994352E-01   8.439073E-01   1.113586E+01   7.703686E-01   9.570066E-01   1.195328E+01   5.937483E-01  
[...]
<PointData Scalars="Diameter" Vectors="Velocity">
<DataArray type="Float32" Name="Diameter" format="ascii">
  4.000000E-01   4.000000E-01   4.000000E-01   4.000000E-01   4.000000E-01   4.000000E-01   4.000000E-01   4.000000E-01   4.000000E-01   4.000000E-01   4.000000E-01   4.000000E-01   4.000000E-01   4.000000E-01   4.000000E-01   4.000000E-01   4.000000E-01   4.000000E-01   4.000000E-01   4.000000E-01   4.000000E-01   4.000000E-01   4.000000E-01   4.000000E-01   4.000000E-01   4.000000E-01   4.000000E-01   4.000000E-01   4.000000E-01   4.000000E-01   4.000000E-01   4.000000E-01   4.000000E-01   4.000000E-01   4.000000E-01   4.000000E-01   4.000000E-01   4.000000E-01   4.000000E-01   4.000000E-01   4.000000E-01   4.000000E-01   4.000000E-01   4.000000E-01   4.000000E-01   4.000000E-01   4.000000E-01   4.000000E-01   4.000000E-01   4.000000E-01   4.000000E-01   4.000000E-01   4.000000E-01   4.000000E-01   4.000000E-01   4.000000E-01   4.000000E-01   4.000000E-01   4.000000E-01   4.000000E-01   4.000000E-01   4.000000E-01   4.000000E-01   4.000000E-01   4.000000E-01   4.000000E-01   4.000000E-01   4.000000E-01   4.000000E-01   4.000000E-01   4.000000E-01   4.000000E-01   4.000000E-01   4.000000E-01   4.000000E-01   4.000000E-01   4.000000E-01   4.000000E-01   4.000000E-01   4.000000E-01   4.000000E-01   4.000000E-01   4.000000E-01   4.000000E-01   4.000000E-01   4.000000E-01   4.000000E-01   4.000000E-01   4.000000E-01   4.000000E-01   4.000000E-01   4.000000E-01   4.000000E-01   4.000000E-01   4.000000E-01   4.000000E-01   4.000000E-01   4.000000E-01   4.000000E-01   4.000000E-01   4.000000E-01   4.000000E-01   4.000000E-01   4.000000E-01   4.000000E-01   4.000000E-01   4.000000E-01   4.000000E-01   4.000000E-01   4.000000E-01   4.000000E-01   4.000000E-01   4.000000E-01   4.000000E-01   4.000000E-01   4.000000E-01   4.000000E-01   4.000000E-01   4.000000E-01   4.000000E-01   4.000000E-01   4.000000E-01   4.000000E-01   4.000000E-01   4.000000E-01   4.000000E-01   4.000000E-01   4.000000E-01   4.000000E-01   4.000000E-01   4.000000E-01   4.000000E-01   4.000000E-01   4.000000E-01   4.000000E-01   4.000000E-01   4.000000E-01   4.000000E-01   4.000000E-01   4.000000E-01   4.000000E-01   4.000000E-01   4.000000E-01   4.000000E-01   4.000000E-01   4.000000E-01   4.000000E-01   4.000000E-01   4.000000E-01   4.000000E-01   4.000000E-01   4.000000E-01   4.000000E-01   4.000000E-01   4.000000E-01   4.000000E-01   4.000000E-01   4.000000E-01   4.000000E-01   4.000000E-01   4.000000E-01   4.000000E-01   4.000000E-01   4.000000E-01   4.000000E-01   4.000000E-01   4.000000E-01   4.000000E-01   4.000000E-01   4.000000E-01   4.000000E-01   4.000000E-01   4.000000E-01   4.000000E-01   4.000000E-01   4.000000E-01   4.000000E-01   4.000000E-01   4.000000E-01   4.000000E-01   4.000000E-01   4.000000E-01   4.000000E-01   4.000000E-01   4.000000E-01   4.000000E-01   4.000000E-01   4.000000E-01   4.000000E-01   4.000000E-01   4.000000E-01   4.000000E-01   4.000000E-01   4.000000E-01   4.000000E-01   4.000000E-01   4.000000E-01   4.000000E-01   4.000000E-01   4.000000E-01   4.000000E-01   4.000000E-01   4.000000E-01   4.000000E-01   4.000000E-01   4.000000E-01   4.000000E-01   4.000000E-01   4.000000E-01   4.000000E-01   4.000000E-01   4.000000E-01   4.000000E-01   4.000000E-01   4.000000E-01   4.000000E-01   4.000000E-01   4.000000E-01   4.000000E-01   4.000000E-01   4.000000E-01   4.000000E-01   4.000000E-01   4.000000E-01   4.000000E-01   4.000000E-01   4.000000E-01   4.000000E-01   4.000000E-01   4.000000E-01   4.000000E-01   4.000000E-01   4.000000E-01   4.000000E-01   4.000000E-01   4.000000E-01   4.000000E-01   4.000000E-01   4.000000E-01   4.000000E-01   4.000000E-01   4.000000E-01   4.000000E-01   4.000000E-01   4.000000E-01   4.000000E-01   4.000000E-01   4.000000E-01   4.000000E-01   4.000000E-01   4.000000E-01   4.000000E-01   4.000000E-01   4.000000E-01   4.000000E-01   4.000000E-01   4.000000E-01   4.000000E-01   4.000000E-01   4.000000E-01   4.000000E-01   4.000000E-01   4.000000E-01   4.000000E-01   4.000000E-01   4.000000E-01   4.000000E-01   4.000000E-01   4.000000E-01   4.000000E-01   4.000000E-01   4.000000E-01   4.000000E-01   4.000000E-01   4.000000E-01   4.000000E-01   4.000000E-01   4.000000E-01   4.000000E-01   4.000000E-01   4.000000E-01   4.000000E-01   4.000000E-01   4.000000E-01   4.000000E-01   4.000000E-01   4.000000E-01   4.000000E-01   4.000000E-01   4.000000E-01   4.000000E-01   4.000000E-01   4.000000E-01   4.000000E-01   4.000000E-01   4.000000E-01   4.000000E-01   4.000000E-01   4.000000E-01   4.000000E-01   4.000000E-01   4.000000E-01   4.000000E-01   4.000000E-01   4.000000E-01   4.000000E-01   4.000000E-01   4.000000E-01   4.000000E-01   4.000000E-01   4.000000E-01   4.000000E-01   4.000000E-01   4.000000E-01   4.000000E-01   4.000000E-01   4.000000E-01   4.000000E-01   4.000000E-01   4.000000E-01   4.000000E-01   4.000000E-01   4.000000E-01   4.000000E-01   4.000000E-01   4.000000E-01   4.000000E-01   4.000000E-01   4.000000E-01   4.000000E-01   4.000000E-01   4.000000E-01   4.000000E-01   4.000000E-01   4.000000E-01   4.000000E-01   4.000000E-01   4.000000E-01   4.000000E-01   4.000000E-01   4.000000E-01   4.000000E-01   4.000000E-01   4.000000E-01   4.000000E-01   4.000000E-01   4.000000E-01   4.000000E-01   4.000000E-01   4.000000E-01   4.000000E-01   4.000000E-01   4.000000E-01   4.000000E-01   4.000000E-01   4.000000E-01   4.000000E-01   4.000000E-01   4.000000E-01   4.000000E-01   4.000000E-01   4.000000E-01   4.000000E-01   4.000000E-01   4.000000E-01   4.000000E-01   4.000000E-01   4.000000E-01   4.000000E-01   4.000000E-01   4.000000E-01   4.000000E-01   4.000000E-01   4.000000E-01   4.000000E-01   4.000000E-01   4.000000E-01   4.000000E-01   4.000000E-01   4.000000E-01   4.000000E-01   4.000000E-01   4.000000E-01   4.000000E-01   4.000000E-01   4.000000E-01   4.000000E-01   4.000000E-01   4.000000E-01   4.000000E-01   4.000000E-01   4.000000E-01   4.000000E-01   4.000000E-01   4.000000E-01   4.000000E-01   4.000000E-01   4.000000E-01   4.000000E-01   4.000000E-01   4.000000E-01   4.000000E-01   4.000000E-01   4.000000E-01   4.000000E-01   4.000000E-01   4.000000E-01   4.000000E-01   4.000000E-01   4.000000E-01   4.000000E-01   4.000000E-01   4.000000E-01   4.000000E-01   4.000000E-01   4.000000E-01   4.000000E-01   4.000000E-01   4.000000E-01   4.000000E-01   4.000000E-01   4.000000E-01   4.000000E-01   4.000000E-01   4.000000E-01   4.000000E-01   4.000000E-01   4.000000E-01   4.000000E-01   4.000000E-01   4.000000E-01   4.000000E-01   4.000000E-01   4.000000E-01   4.000000E-01   4.000000E-01   4.000000E-01   4.000000E-01   4.000000E-01   4.000000E-01   4.000000E-01   4.000000E-01   4.000000E-01   4.000000E-01   4.000000E-01   4.000000E-01   4.000000E-01   4.000000E-01   4.000000E-01   4.000000E-01   4.000000E-01   4.000000E-01   4.000000E-01   4.000000E-01   4.000000E-01   4.000000E-01   4.000000E-01   4.000000E-01   4.000000E-01   4.000000E-01   4.000000E-01   4.000000E-01   4.000000E-01   4.000000E-01   4.000000E-01   4.000000E-01   4.000000E-01   4.000000E-01   4.000000E-01   4.000000E-01   4.000000E-01   4.000000E-01   4.000000E-01   4.000000E-01   4.000000E-01   4.000000E-01   4.000000E-01   4.000000E-01   4.000000E-01   4.000000E-01   4.000000E-01   4.000000E-01   4.000000E-01   4.000000E-01   4.000000E-01   4.000000E-01   4.000000E-01   4.000000E-01   4.000000E-01   4.000000E-01   4.000000E-01   4.000000E-01   4.000000E-01   4.000000E-01   4.000000E-01   4.000000E-01   4.000000E-01   4.000000E-01   4.000000E-01   4.000000E-01   4.000000E-01   4.000000E-01   4.000000E-01   4.000000E-01   4.000000E-01   4.000000E-01   4.000000E-01   4.000000E-01   4.000000E-01   4.000000E-01   4.000000E-01   4.000000E-01   4.000000E-01   4.000000E-01   4.000000E-01   4.000000E-01   4.000000E-01   4.000000E-01   4.000000E-01   4.000000E-01   4.000000E-01   4.000000E-01   4.000000E-01   4.000000E-01   4.000000E-01   4.000000E-01   4.000000E-01   4.000000E-01   4.000000E-01   4.000000E-01   4.000000E-01   4.000000E-01   4.000000E-01   4.000000E-01   4.000000E-01   4.000000E-01   4.000000E-01   4.000000E-01   4.000000E-01   4.000000E-01   4.000000E-01   4.000000E-01   4.000000E-01   4.000000E-01   4.000000E-01   4.000000E-01   4.000000E-01   4.000000E-01   4.000000E-01   4.000000E-01   4.000000E-01   4.000000E-01   4.000000E-01   4.000000E-01   4.000000E-01   4.000000E-01   4.000000E-01   4.000000E-01   4.000000E-01   4.000000E-01   4.000000E-01   4.000000E-01   4.000000E-01   4.000000E-01   4.000000E-01   4.000000E-01   4.000000E-01   4.000000E-01   4.000000E-01   4.000000E-01   4.000000E-01   4.000000E-01   4.000000E-01   4.000000E-01   4.000000E-01   4.000000E-01   4.000000E-01   4.000000E-01   4.000000E-01   4.000000E-01   4.000000E-01   4.000000E-01   4.000000E-01   4.000000E-01   4.000000E-01   4.000000E-01   4.000000E-01   4.000000E-01   4.000000E-01   4.000000E-01   4.000000E-01   4.000000E-01   4.000000E-01   4.000000E-01   4.000000E-01   4.000000E-01   4.000000E-01   4.000000E-01   4.000000E-01   4.000000E-01   4.000000E-01   4.000000E-01   4.000000E-01   4.000000E-01   4.000000E-01   4.000000E-01   4.000000E-01   4.000000E-01   4.000000E-01   4.000000E-01   4.000000E-01   4.000000E-01   4.000000E-01   4.000000E-01   4.000000E-01   4.000000E-01   4.000000E-01   4.000000E-01   4.000000E-01   4.000000E-01   4.000000E-01   4.000000E-01   4.000000E-01   4.000000E-01   4.000000E-01   4.000000E-01   4.000000E-01   4.000000E-01   4.000000E-01   4.000000E-01   4.000000E-01   4.000000E-01   4.000000E-01   4.000000E-01   4.000000E-01   4.000000E-01   4.000000E-01   4.000000E-01   4.000000E-01   4.000000E-01   4.000000E-01   4.000000E-01   4.000000E-01   4.000000E-01   4.000000E-01   4.000000E-01   4.000000E-01   4.000000E-01   4.000000E-01   4.000000E-01   4.000000E-01   4.000000E-01   4.000000E-01   4.000000E-01   4.000000E-01   4.000000E-01   4.000000E-01   4.000000E-01   4.000000E-01   4.000000E-01   4.000000E-01   4.000000E-01   4.000000E-01   4.000000E-01   4.000000E-01   4.000000E-01   4.000000E-01   4.000000E-01   4.000000E-01   4.000000E-01   4.000000E-01   4.000000E-01   4.000000E-01   4.000000E-01   4.000000E-01   4.000000E-01   4.000000E-01   4.000000E-01   4.000000E-01   4.000000E-01   4.000000E-01   4.000000E-01   4.000000E-01   4.000000E-01   4.000000E-01   4.000000E-01   4.000000E-01   4.000000E-01   4.000000E-01   4.000000E-01   4.000000E-01   4.000000E-01   4.000000E-01   4.000000E-01   4.000000E-01   4.000000E-01   4.000000E-01   4.000000E-01   4.000000E-01   4.000000E-01   4.000000E-01   4.000000E-01   4.000000E-01   4.000000E-01   4.000000E-01   4.000000E-01   4.000000E-01   4.000000E-01   4.000000E-01   4.000000E-01   4.000000E-01   4.000000E-01   4.000000E-01   4.000000E-01   4.000000E-01   4.000000E-01   4.000000E-01   4.000000E-01   4.000000E-01   4.000000E-01   4.000000E-01   4.000000E-01   4.000000E-01   4.000000E-01   4.000000E-01   4.000000E-01   4.000000E-01   4.000000E-01   4.000000E-01   4.000000E-01   4.000000E-01   4.000000E-01   4.000000E-01   4.000000E-01   4.000000E-01   4.000000E-01   4.000000E-01   4.000000E-01   4.000000E-01   4.000000E-01   4.000000E-01   4.000000E-01   4.000000E-01   4.000000E-01   4.000000E-01   4.000000E-01   4.000000E-01   4.000000E-01   4.000000E-01   4.000000E-01   4.000000E-01   4.000000E-01   4.000000E-01   4.000000E-01   4.000000E-01   4.000000E-01   4.000000E-01   4.000000E-01   4.000000E-01   4.000000E-01   4.000000E-01   4.000000E-01   4.000000E-01   4.000000E-01   4.000000E-01   4.000000E-01   4.000000E-01   4.000000E-01   4.000000E-01   4.000000E-01   4.000000E-01   4.000000E-01   4.000000E-01   4.000000E-01   4.000000E-01   4.000000E-01   4.000000E-01   4.000000E-01   4.000000E-01   4.000000E-01   4.000000E-01   4.000000E-01   4.000000E-01   4.000000E-01   4.000000E-01   4.000000E-01   4.000000E-01   4.000000E-01   4.000000E-01   4.000000E-01   4.000000E-01   4.000000E-01   4.000000E-01   4.000000E-01   4.000000E-01   4.000000E-01   4.000000E-01   4.000000E-01   4.000000E-01   4.000000E-01   4.000000E-01   4.000000E-01   4.000000E-01   4.000000E-01   4.000000E-01   4.000000E-01   4.000000E-01   4.000000E-01   4.000000E-01   4.000000E-01   4.000000E-01   4.000000E-01   4.000000E-01   4.000000E-01   4.000000E-01   4.000000E-01   4.000000E-01   4.000000E-01   4.000000E-01   4.000000E-01   4.000000E-01   4.000000E-01   4.000000E-01   4.000000E-01   4.000000E-01   4.000000E-01   4.000000E-01   4.000000E-01   4.000000E-01   4.000000E-01   4.000000E-01   4.000000E-01   4.000000E-01   4.000000E-01   4.000000E-01   4.000000E-01   4.000000E-01   4.000000E-01   4.000000E-01   4.000000E-01   4.000000E-01   4.000000E-01   4.000000E-01   4.000000E-01   4.000000E-01   4.000000E-01   4.000000E-01   4.000000E-01   4.000000E-01   4.000000E-01   4.000000E-01   4.000000E-01   4.000000E-01   4.000000E-01   4.000000E-01   4.000000E-01   4.000000E-01   4.000000E-01   4.000000E-01   4.000000E-01   4.000000E-01   4.000000E-01   4.000000E-01   4.000000E-01   4.000000E-01   4.000000E-01   4.000000E-01   4.000000E-01   4.000000E-01   4.000000E-01   4.000000E-01   4.000000E-01   4.000000E-01   4.000000E-01   4.000000E-01   4.000000E-01   4.000000E-01   4.000000E-01   4.000000E-01   4.000000E-01   4.000000E-01   4.000000E-01   4.000000E-01   4.000000E-01   4.000000E-01   4.000000E-01   4.000000E-01   4.000000E-01   4.000000E-01   4.000000E-01   4.000000E-01   4.000000E-01   4.000000E-01   4.000000E-01   4.000000E-01   4.000000E-01   4.000000E-01   4.000000E-01   4.000000E-01   4.000000E-01   4.000000E-01   4.000000E-01   4.000000E-01   4.000000E-01   4.000000E-01   4.000000E-01   4.000000E-01   4.000000E-01   4.000000E-01   4.000000E-01   4.000000E-01   4.000000E-01   4.000000E-01   4.000000E-01   4.000000E-01   4.000000E-01   4.000000E-01   4.000000E-01   4.000000E-01   4.000000E-01   4.000000E-01   4.000000E-01   4.000000E-01   4.000000E-01   4.000000E-01   4.000000E-01   4.000000E-01   4.000000E-01   4.000000E-01   4.000000E-01   4.000000E-01   4.000000E-01   4.000000E-01   4.000000E-01   4.000000E-01   4.000000E-01   4.000000E-01   4.000000E-01   4.000000E-01   4.000000E-01   4.000000E-01   4.000000E-01   4.000000E-01   4.000000E-01   4.000000E-01   4.000000E-01   4.000000E-01   4.000000E-01   4.000000E-01   4.000000E-01   4.000000E-01   4.000000E-01   4.000000E-01   4.000000E-01   4.000000E-01   4.000000E-01   4.000000E-01   4.000000E-01   4.000000E-01   4.000000E-01   4.000000E-01   4.000000E-01   4.000000E-01   4.000000E-01   4.000000E-01   4.000000E-01   4.000000E-01   4.000000E-01   4.000000E-01   4.000000E-01   4.000000E-01   4.000000E-01   4.000000E-01   4.000000E-01   4.000000E-01   4.000000E-01   4.000000E-01   4.000000E-01   4.000000E-01   4.000000E-01   4.000000E-01   4.000000E-01   4.000000E-01   4.000000E-01   4.000000E-01   4.000000E-01   4.000000E-01   4.000000E-01   4.000000E-01   4.000000E-01   4.000000E-01   4.000000E-01   4.000000E-01   4.000000E-01   4.000000E-01   4.000000E-01   4.000000E-01   4.000000E-01   4.000000E-01   4.000000E-01   4.000000E-01   4.000000E-01   4.000000E-01   4.000000E-01   4.000000E-01   4.000000E-01   4.000000E-01   4.000000E-01   4.000000E-01   4.000000E-01   4.000000E-01   4.000000E-01   4.000000E-01   4.000000E-01   4.000000E-01   4.000000E-01   4.000000E-01   4.000000E-01   4.000000E-01   4.000000E-01   4.000000E-01   4.000000E-01   4.000000E-01   4.000000E-01   4.000000E-01   4.000000E-01   4.000000E-01   4.000000E-01   4.000000E-01   4.000000E-01   4.000000E-01   4.000000E-01   4.000000E-01   4.000000E-01   4.000000E-01   4.000000E-01   4.000000E-01   4.000000E-01   4.000000E-01   4.000000E-01   4.000000E-01   4.000000E-01   4.000000E-01   4.000000E-01   4.000000E-01   4.000000E-01   4.000000E-01   4.000000E-01   4.000000E-01   4.000000E-01   4.000000E-01   4.000000E-01   4.000000E-01   4.000000E-01   4.000000E-01   4.000000E-01   4.000000E-01   4.000000E-01   4.000000E-01   4.000000E-01   4.000000E-01   4.000000E-01   4.000000E-01   4.000000E-01   4.000000E-01   4.000000E-01   4.000000E-01   4.000000E-01   4.000000E-01   4.000000E-01   4.000000E-01   4.000000E-01   4.000000E-01   4.000000E-01   4.000000E-01   4.000000E-01   4.000000E-01   4.000000E-01   4.000000E-01   4.000000E-01   4.000000E-01   4.000000E-01   4.000000E-01   4.000000E-01   4.000000E-01   4.000000E-01   4.000000E-01   4.000000E-01   4.000000E-01   4.000000E-01   4.000000E-01   4.000000E-01   4.000000E-01   4.000000E-01   4.000000E-01   4.000000E-01   4.000000E-01   4.000000E-01   4.000000E-01   4.000000E-01   4.000000E-01   4.000000E-01   4.000000E-01   4.000000E-01   4.000000E-01   4.000000E-01   4.000000E-01   4.000000E-01   4.000000E-01   4.000000E-01   4.000000E-01   4.000000E-01   4.000000E-01   4.000000E-01   4.000000E-01   4.000000E-01   4.000000E-01   4.000000E-01   4.000000E-01   4.000000E-01   4.000000E-01   4.000000E-01   4.000000E-01   4.000000E-01   4.000000E-01   4.000000E-01   4.000000E-01   4.000000E-01   4.000000E-01   4.000000E-01   4.000000E-01   4.000000E-01   4.000000E-01   4.000000E-01   4.000000E-01   4.000000E-01   4.000000E-01   4.000000E-01   4.000000E-01   4.000000E-01   4.000000E-01   4.000000E-01   4.000000E-01   4.000000E-01   4.000000E-01   4.000000E-01   4.000000E-01   4.000000E-01   4.000000E-01   4.000000E-01   4.000000E-01   4.000000E-01   4.000000E-01   4.000000E-01   4.000000E-01   4.000000E-01   4.000000E-01   4.000000E-01   4.000000E-01   4.000000E-01   4.000000E-01   4.000000E-01   4.000000E-01   4.000000E-01   4.000000E-01   4.000000E-01   4.000000E-01   4.000000E-01   4.000000E-01   4.000000E-01   4.000000E-01   4.000000E-01   4.000000E-01   4.000000E-01   4.000000E-01   4.000000E-01   4.000000E-01   4.000000E-01   4.000000E-01   4.000000E-01   4.000000E-01   4.000000E-01   4.000000E-01   4.000000E-01   4.000000E-01   4.000000E-01   4.000000E-01   4.000000E-01   4.000000E-01   4.000000E-01   4.000000E-01   4.000000E-01   4.000000E-01   4.000000E-01   4.000000E-01   4.000000E-01   4.000000E-01   4.000000E-01   4.000000E-01   4.000000E-01   4.000000E-01   4.000000E-01   4.000000E-01   4.000000E-01   4.000000E-01   4.000000E-01   4.000000E-01   4.000000E-01   4.000000E-01   4.000000E-01   4.000000E-01   4.000000E-01   4.000000E-01   4.000000E-01   4.000000E-01   4.000000E-01   4.000000E-01   4.000000E-01   4.000000E-01   4.000000E-01   4.000000E-01   4.000000E-01   4.000000E-01   4.000000E-01   4.000000E-01   4.000000E-01   4.000000E-01   4.000000E-01   4.000000E-01   4.000000E-01   4.000000E-01   4.000000E-01   4.000000E-01   4.000000E-01   4.000000E-01   4.000000E-01   4.000000E-01   4.000000E-01   4.000000E-01   4.000000E-01   4.000000E-01   4.000000E-01   4.000000E-01   4.000000E-01   4.000000E-01   4.000000E-01   4.000000E-01   4.000000E-01   4.000000E-01   4.000000E-01   4.000000E-01   4.000000E-01   4.000000E-01   4.000000E-01   4.000000E-01   4.000000E-01   4.000000E-01   4.000000E-01   4.000000E-01   4.000000E-01   4.000000E-01   4.000000E-01   4.000000E-01   4.000000E-01   4.000000E-01   4.000000E-01   4.000000E-01   4.000000E-01   4.000000E-01   4.000000E-01   4.000000E-01   4.000000E-01   4.000000E-01   4.000000E-01   4.000000E-01   4.000000E-01   4.000000E-01   4.000000E-01   4.000000E-01   4.000000E-01   4.000000E-01   4.000000E-01   4.000000E-01   4.000000E-01   4.000000E-01   4.000000E-01   4.000000E-01   4.000000E-01   4.000000E-01   4.000000E-01   4.000000E-01   4.000000E-01   4.000000E-01   4.000000E-01   4.000000E-01   4.000000E-01   4.000000E-01   4.000000E-01   4.000000E-01   4.000000E-01   4.000000E-01   4.000000E-01   4.000000E-01   4.000000E-01   4.000000E-01   4.000000E-01   4.000000E-01   4.000000E-01   4.000000E-01   4.000000E-01   4.000000E-01   4.000000E-01   4.000000E-01   4.000000E-01   4.000000E-01   4.000000E-01   4.000000E-01   4.000000E-01   4.000000E-01   4.000000E-01   4.000000E-01   4.000000E-01   4.000000E-01   4.000000E-01   4.000000E-01   4.000000E-01   