<?xml version="1.0"?>
<!-- Time =  0.0000000000000000E+00s -->
<VTKFile type="PolyData" version="0.1" byte_order="LittleEndian">
<PolyData>
<Piece NumberOfPoints="0000028800" NumberOfVerts="0" NumberOfLines="0" NumberOfStrips="0" NumberOfPolys="0">
<Points>
<DataArray type="Float32" Name="Position" NumberOfComponents="3" format="ascii">
  9.100000E-01   2.780387E-01   4.200000E-01   1.350000E+00   2.780387E-01   4.200000E-01   1.790000E+00   2.780387E-01   4.200000E-01   2.230000E+00   2.780387E-01   4.200000E-01   2.670000E+00   2.780387E-01   4.200000E-01   3.110000E+00   2.780387E-01   4.200000E-01   3.550000E+00   2.780387E-01   4.200000E-01   3.990000E+00   2.780387E-01   4.200000E-01   4.430000E+00   2.780387E-01   4.200000E-01   4.870000E+00   2.780387E-01   4.200000E-01   5.310000E+00   2.780387E-01   4.200000E-01   5.750000E+00   2.780387E-01   4.200000E-01   6.190000E+00   2.780387E-01   4.200000E-01   6.630000E+00   2.780387E-01   4.200000E-01   7.070000E+00   2.780387E-01   4.200000E-01   7.510000E+00   2.780387E-01   4.200000E-01   7.950000E+00   2.780387E-01   4.200000E-01   8.390000E+00   2.780387E-01   4.200000E-01   8.830000E+00   2.780387E-01   4.200000E-01   9.270000E+00   2.780387E-01   4.200000E-01   9.710000E+00   2.780387E-01   4.200000E-01   1.015000E+01   2.780387E-01   4.200000E-01   1.059000E+01   2.780387E-01   4.200000E-01   1.103000E+01   2.780387E-01   4.200000E-01   1.147000E+01   2.780387E-01   4.200000E-01   1.191000E+01   2.780387E-01   4.200000E-01   1.235000E+01   2.780387E-01   4.200000E-01   1.279000E+01   2.780387E-01   4.200000E-01   1.323000E+01   2.780387E-01   4.200000E-01   1.367000E+01   2.780387E-01   4.200000E-01   1.411000E+01   2.780387E-01   4.200000E-01   6.900000E-01   1.099039E+00   4.200000E-01   1.130000E+00   1.099039E+00   4.200000E-01   1.570000E+00   1.099039E+00   4.200000E-01   2.010000E+00   1.099039E+00   4.200000E-01   2.450000E+00   1.099039E+00   4.200000E-01   2.890000E+00   1.099039E+00   4.200000E-01   3.330000E+00   1.099039E+00   4.200000E-01   3.770000E+00   1.099039E+00   4.200000E-01   4.210000E+00   1.099039E+00   4.200000E-01   4.650000E+00   1.099039E+00   4.200000E-01   5.090000E+00   1.099039E+00   4.200000E-01   5.530000E+00   1.099039E+00   4.200000E-01   5.970000E+00   1.099039E+00   4.200000E-01   6.410000E+00   1.099039E+00   4.200000E-01   6.850000E+00   1.099039E+00   4.200000E-01   7.290000E+00   1.099039E+00   4.200000E-01   7.730000E+00   1.099039E+00   4.200000E-01   8.170000E+00   1.099039E+00   4.200000E-01   8.610000E+00   1.099039E+00   4.200000E-01   9.050000E+00   1.099039E+00   4.200000E-01   9.490000E+00   1.099039E+00   4.200000E-01   9.930000E+00   1.099039E+00   4.200000E-01   1.037000E+01   1.099039E+00   4.200000E-01   1.081000E+01   1.099039E+00   4.200000E-01   1.125000E+01   1.099039E+00   4.200000E-01   1.169000E+01   1.099039E+00   4.200000E-01   1.213000E+01   1.099039E+00   4.200000E-01   1.257000E+01   1.099039E+00   4.200000E-01   1.301000E+01   1.099039E+00   4.200000E-01   1.345000E+01   1.099039E+00   4.200000E-01   1.389000E+01   1.099039E+00   4.200000E-01   1.433000E+01   1.099039E+00   4.200000E-01   9.100000E-01   1.480039E+00   4.200000E-01   1.350000E+00   1.480039E+00   4.200000E-01   1.790000E+00   1.480039E+00   4.200000E-01   2.230000E+00   1.480039E+00   4.200000E-01   2.670000E+00   1.480039E+00   4.200000E-01   3.110000E+00   1.480039E+00   4.200000E-01   3.550000E+00   1.480039E+00   4.200000E-01   3.990000E+00   1.480039E+00   4.200000E-01   4.430000E+00   1.480039E+00   4.200000E-01   4.870000E+00   1.480039E+00   4.200000E-01   5.310000E+00   1.480039E+00   4.200000E-01   5.750000E+00   1.480039E+00   4.200000E-01   6.190000E+00   1.480039E+00   4.200000E-01   6.630000E+00   1.480039E+00   4.200000E-01   7.070000E+00   1.480039E+00   4.200000E-01   7.510000E+00   1.480039E+00   4.200000E-01   7.950000E+00   1.480039E+00   4.200000E-01   8.390000E+00   1.480039E+00   4.200000E-01   8.830000E+00   1.480039E+00   4.200000E-01   9.270000E+00   1.480039E+00   4.200000E-01   9.710000E+00   1.480039E+00   4.200000E-01   1.015000E+01   1.480039E+00   4.200000E-01   1.059000E+01   1.480039E+00   4.200000E-01   1.103000E+01   1.480039E+00   4.200000E-01   1.147000E+01   1.480039E+00   4.200000E-01   1.191000E+01   1.480039E+00   4.200000E-01   1.235000E+01   1.480039E+00   4.200000E-01   1.279000E+01   1.480039E+00   4.200000E-01   1.323000E+01   1.480039E+00   4.200000E-01   1.367000E+01   1.480039E+00   4.200000E-01   1.411000E+01   1.480039E+00   4.200000E-01   6.900000E-01   1.861039E+00   4.200000E-01   1.130000E+00   1.861039E+00   4.200000E-01   1.570000E+00   1.861039E+00   4.200000E-01   2.010000E+00   1.861039E+00   4.200000E-01   2.450000E+00   1.861039E+00   4.200000E-01   2.890000E+00   1.861039E+00   4.200000E-01   3.330000E+00   1.861039E+00   4.200000E-01   3.770000E+00   1.861039E+00   4.200000E-01   4.210000E+00   1.861039E+00   4.200000E-01   4.650000E+00   1.861039E+00   4.200000E-01   5.090000E+00   1.861039E+00   4.200000E-01   5.530000E+00   1.861039E+00   4.200000E-01   5.970000E+00   1.861039E+00   4.200000E-01   6.410000E+00   1.861039E+00   4.200000E-01   6.850000E+00   1.861039E+00   4.200000E-01   7.290000E+00   1.861039E+00   4.200000E-01   7.730000E+00   1.861039E+00   4.200000E-01   8.170000E+00   1.861039E+00   4.200000E-01   8.610000E+00   1.861039E+00   4.200000E-01   9.050000E+00   1.861039E+00   4.200000E-01   9.490000E+00   1.861039E+00   4.200000E-01   9.930000E+00   1.861039E+00   4.200000E-01   1.037000E+01   1.861039E+00   4.200000E-01   1.081000E+01   1.861039E+00   4.200000E-01   1.125000E+01   1.861039E+00   4.200000E-01   1.169000E+01   1.861039E+00   4.200000E-01   1.213000E+01   1.861039E+00   4.200000E-01   1.257000E+01   1.861039E+00   4.200000E-01   1.301000E+01   1.861039E+00   4.200000E-01   1.345000E+01   1.861039E+00   4.200000E-01   1.389000E+01   1.861039E+00   4.200000E-01   1.433000E+01   1.861039E+00   4.200000E-01   9.100000E-01   2.242039E+00   4.200000E-01   1.350000E+00   2.242039E+00   4.200000E-01   1.790000E+00   2.242039E+00   4.200000E-01   2.230000E+00   2.242039E+00   4.200000E-01   2.670000E+00   2.242039E+00   4.200000E-01   3.110000E+00   2.242039E+00   4.200000E-01   3.550000E+00   2.242039E+00   4.200000E-01   3.990000E+00   2.242039E+00   4.200000E-01   4.430000E+00   2.242039E+00   4.200000E-01   4.870000E+00   2.242039E+00   4.200000E-01   5.310000E+00   2.242039E+00   4.200000E-01   5.750000E+00   2.242039E+00   4.200000E-01   6.190000E+00   2.242039E+00   4.200000E-01   6.630000E+00   2.242039E+00   4.200000E-01   7.070000E+00   2.242039E+00   4.200000E-01   7.510000E+00   2.242039E+00   4.200000E-01   7.950000E+00   2.242039E+00   4.200000E-01   8.390000E+00   2.242039E+00   4.200000E-01   8.830000E+00   2.242039E+00   4.200000E-01   9.270000E+00   2.242039E+00   4.200000E-01   9.710000E+00   2.242039E+00   4.200000E-01   1.015000E+01   2.242039E+00   4.200000E-01   1.059000E+01   2.242039E+00   4.200000E-01   1.103000E+01   2.242039E+00   4.200000E-01   1.147000E+01   2.242039E+00   4.200000E-01   1.191000E+01   2.242039E+00   4.200000E-01   1.235000E+01   2.242039E+00   4.200000E-01   1.279000E+01   2.242039E+00   4.200000E-01   1.323000E+01   2.242039E+00   4.200000E-01   1.367000E+01   2.242039E+00   4.200000E-01   1.411000E+01   2.242039E+00   4.200000E-01   6.900000E-01   2.623039E+00   4.200000E-01   1.130000E+00   2.623039E+00   4.200000E-01   1.570000E+00   2.623039E+00   4.200000E-01   2.010000E+00   2.623039E+00   4.200000E-01   2.450000E+00   2.623039E+00   4.200000E-01   2.890000E+00   2.623039E+00   4.200000E-01   3.330000E+00   2.623039E+00   4.200000E-01   3.770000E+00   2.623039E+00   4.200000E-01   4.210000E+00   2.623039E+00   4.200000E-01   4.650000E+00   2.623039E+00   4.200000E-01   5.090000E+00   2.623039E+00   4.200000E-01   5.530000E+00   2.623039E+00   4.200000E-01   5.970000E+00   2.623039E+00   4.200000E-01   6.410000E+00   2.623039E+00   4.200000E-01   6.850000E+00   2.623039E+00   4.200000E-01   7.290000E+00   2.623039E+00   4.200000E-01   7.730000E+00   2.623039E+00   4.200000E-01   8.170000E+00   2.623039E+00   4.200000E-01   8.610000E+00   2.623039E+00   4.200000E-01   9.050000E+00   2.623039E+00   4.200000E-01   9.490000E+00   2.623039E+00   4.200000E-01   9.930000E+00   2.623039E+00   4.200000E-01   1.037000E+01   2.623039E+00   4.200000E-01   1.081000E+01   2.623039E+00   4.200000E-01   1.125000E+01   2.623039E+00   4.200000E-01   1.169000E+01   2.623039E+00   4.200000E-01   1.213000E+01   2.623039E+00   4.200000E-01   1.257000E+01   2.623039E+00   4.200000E-01   1.301000E+01   2.623039E+00   4.200000E-01   1.345000E+01   2.623039E+00   4.200000E-01   1.389000E+01   2.623039E+00   4.200000E-01   1.433000E+01   2.623039E+00   4.200000E-01   9.100000E-01   3.004039E+00   4.200000E-01   1.350000E+00   3.004039E+00   4.200000E-01   1.790000E+00   3.004039E+00   4.200000E-01   2.230000E+00   3.004039E+00   4.200000E-01   2.670000E+00   3.004039E+00   4.200000E-01   3.110000E+00   3.004039E+00   4.200000E-01   3.550000E+00   3.004039E+00   4.200000E-01   3.990000E+00   3.004039E+00   4.200000E-01   4.430000E+00   3.004039E+00   4.200000E-01   4.870000E+00   3.004039E+00   4.200000E-01   5.310000E+00   3.004039E+00   4.200000E-01   5.750000E+00   3.004039E+00   4.200000E-01   6.190000E+00   3.004039E+00   4.200000E-01   6.630000E+00   3.004039E+00   4.200000E-01   7.070000E+00   3.004039E+00   4.200000E-01   7.510000E+00   3.004039E+00   4.200000E-01   7.950000E+00   3.004039E+00   4.200000E-01   8.390000E+00   3.004039E+00   4.200000E-01   8.830000E+00   3.004039E+00   4.200000E-01   9.270000E+00   3.004039E+00   4.200000E-01   9.710000E+00   3.004039E+00   4.200000E-01   1.015000E+01   3.004039E+00   4.200000E-01   1.059000E+01   3.004039E+00   4.200000E-01   1.103000E+01   3.004039E+00   4.200000E-01   1.147000E+01   3.004039E+00   4.200000E-01   1.191000E+01   3.004039E+00  
[...]
<PointData Scalars="Diameter" Vectors="Velocity">
<DataArray type="Float32" Name="Diameter" format="ascii">
  4.000000E-01   4.000000E-01   4.000000E-01   4.000000E-01   4.000000E-01   4.000000E-01   4.000000E-01   4.000000E-01   4.000000E-01   4.000000E-01   4.000000E-01   4.000000E-01   4.000000E-01   4.000000E-01   4.000000E-01   4.000000E-01   4.000000E-01   4.000000E-01   4.000000E-01   4.000000E-01   4.000000E-01   4.000000E-01   4.000000E-01   4.000000E-01   4.000000E-01   4.000000E-01   4.000000E-01   4.000000E-01   4.000000E-01   4.000000E-01   4.000000E-01   4.000000E-01   4.000000E-01   4.000000E-01   4.000000E-01   4.000000E-01   4.000000E-01   4.000000E-01   4.000000E-01   4.000000E-01   4.000000E-01   4.000000E-01   4.000000E-01   4.000000E-01   4.000000E-01   4.000000E-01   4.000000E-01   4.000000E-01   4.000000E-01   4.000000E-01   4.000000E-01   4.000000E-01   4.000000E-01   4.000000E-01   4.000000E-01   4.000000E-01   4.000000E-01   4.000000E-01   4.000000E-01   4.000000E-01   4.000000E-01   4.000000E-01   4.000000E-01   4.000000E-01   4.000000E-01   4.000000E-01   4.000000E-01   4.000000E-01   4.000000E-01   4.000000E-01   4.000000E-01   4.000000E-01   4.000000E-01   4.000000E-01   4.000000E-01   4.000000E-01   4.000000E-01   4.000000E-01   4.000000E-01   4.000000E-01   4.000000E-01   4.000000E-01   4.000000E-01   4.000000E-01   4.000000E-01   4.000000E-01   4.000000E-01   4.000000E-01   4.000000E-01   4.000000E-01   4.000000E-01   4.000000E-01   4.000000E-01   4.000000E-01   4.000000E-01   4.000000E-01   4.000000E-01   4.000000E-01   4.000000E-01   4.000000E-01   4.000000E-01   4.000000E-01   4.000000E-01   4.000000E-01   4.000000E-01   4.000000E-01   4.000000E-01   4.000000E-01   4.000000E-01   4.000000E-01   4.000000E-01   4.000000E-01   4.000000E-01   4.000000E-01   4.000000E-01   4.000000E-01   4.000000E-01   4.000000E-01   4.000000E-01   4.000000E-01   4.000000E-01   4.000000E-01   4.000000E-01   4.000000E-01   4.000000E-01   4.000000E-01   4.000000E-01   4.000000E-01   4.000000E-01   4.000000E-01   4.000000E-01   4.000000E-01   4.000000E-01   4.000000E-01   4.000000E-01   4.000000E-01   4.000000E-01   4.000000E-01   4.000000E-01   4.000000E-01   4.000000E-01   4.000000E-01   4.000000E-01   4.000000E-01   4.000000E-01   4.000000E-01   4.000000E-01   4.000000E-01   4.000000E-01   4.000000E-01   4.000000E-01   4.000000E-01   4.000000E-01   4.000000E-01   4.000000E-01   4.000000E-01   4.000000E-01   4.000000E-01   4.000000E-01   4.000000E-01   4.000000E-01   4.000000E-01   4.000000E-01   4.000000E-01   4.000000E-01   4.000000E-01   4.000000E-01   4.000000E-01   4.000000E-01   4.000000E-01   4.000000E-01   4.000000E-01   4.000000E-01   4.000000E-01   4.000000E-01   4.000000E-01   4.000000E-01   4.000000E-01   4.000000E-01   4.000000E-01   4.000000E-01   4.000000E-01   4.000000E-01   4.000000E-01   4.000000E-01   4.000000E-01   4.000000E-01   4.000000E-01   4.000000E-01   4.000000E-01   4.000000E-01   4.000000E-01   4.000000E-01   4.000000E-01   4.000000E-01   4.000000E-01   4.000000E-01   4.000000E-01   4.000000E-01   4.000000E-01   4.000000E-01   4.000000E-01   4.000000E-01   4.000000E-01   4.000000E-01   4.000000E-01   4.000000E-01   4.000000E-01   4.000000E-01   4.000000E-01   4.000000E-01   4.000000E-01   4.000000E-01   4.000000E-01   4.000000E-01   4.000000E-01   4.000000E-01   4.000000E-01   4.000000E-01   4.000000E-01   4.000000E-01   4.000000E-01   4.000000E-01   4.000000E-01   4.000000E-01   4.000000E-01   4.000000E-01   4.000000E-01   4.000000E-01   4.000000E-01   4.000000E-01   4.000000E-01   4.000000E-01   4.000000E-01   4.000000E-01   4.000000E-01   4.000000E-01   4.000000E-01   4.000000E-01   4.000000E-01   4.000000E-01   4.000000E-01   4.000000E-01   4.000000E-01   4.000000E-01   4.000000E-01   4.000000E-01   4.000000E-01   4.000000E-01   4.000000E-01   4.000000E-01   4.000000E-01   4.000000E-01   4.000000E-01   4.000000E-01   4.000000E-01   4.000000E-01   4.000000E-01   4.000000E-01   4.000000E-01   4.000000E-01   4.000000E-01   4.000000E-01   4.000000E-01   4.000000E-01   4.000000E-01   4.000000E-01   4.000000E-01   4.000000E-01   4.000000E-01   4.000000E-01   4.000000E-01   4.000000E-01   4.000000E-01   4.000000E-01   4.000000E-01   4.000000E-01   4.000000E-01   4.000000E-01   4.000000E-01   4.000000E-01   4.000000E-01   4.000000E-01   4.000000E-01   4.000000E-01   4.000000E-01   4.000000E-01   4.000000E-01   4.000000E-01   4.000000E-01   4.000000E-01   4.000000E-01   4.000000E-01   4.000000E-01   4.000000E-01   4.000000E-01   4.000000E-01   4.000000E-01   4.000000E-01   4.000000E-01   4.000000E-01   4.000000E-01   4.000000E-01   4.000000E-01   4.000000E-01   4.000000E-01   4.000000E-01   4.000000E-01   4.000000E-01   4.000000E-01   4.000000E-01   4.000000E-01   4.000000E-01   4.000000E-01   4.000000E-01   4.000000E-01   4.000000E-01   4.000000E-01   4.000000E-01   4.000000E-01   4.000000E-01   4.000000E-01   4.000000E-01   4.000000E-01   4.000000E-01   4.000000E-01   4.000000E-01   4.000000E-01   4.000000E-01   4.000000E-01   4.000000E-01   4.000000E-01   4.000000E-01   4.000000E-01   4.000000E-01   4.000000E-01   4.000000E-01   4.000000E-01   4.000000E-01   4.000000E-01   4.000000E-01   4.000000E-01   4.000000E-01   4.000000E-01   4.000000E-01   4.000000E-01   4.000000E-01   4.000000E-01   4.000000E-01   4.000000E-01   4.000000E-01   4.000000E-01   4.000000E-01   4.000000E-01   4.000000E-01   4.000000E-01   4.000000E-01   4.000000E-01   4.000000E-01   4.000000E-01   4.000000E-01   4.000000E-01   4.000000E-01   4.000000E-01   4.000000E-01   4.000000E-01   4.000000E-01   4.000000E-01   4.000000E-01   4.000000E-01   4.000000E-01   4.000000E-01   4.000000E-01   4.000000E-01   4.000000E-01   4.000000E-01   4.000000E-01   4.000000E-01   4.000000E-01   4.000000E-01   4.000000E-01   4.000000E-01   4.000000E-01   4.000000E-01   4.000000E-01   4.000000E-01   4.000000E-01   4.000000E-01   4.000000E-01   4.000000E-01   4.000000E-01   4.000000E-01   4.000000E-01   4.000000E-01   4.000000E-01   4.000000E-01   4.000000E-01   4.000000E-01   4.000000E-01   4.000000E-01   4.000000E-01   4.000000E-01   4.000000E-01   4.000000E-01   4.000000E-01   4.000000E-01   4.000000E-01   4.000000E-01   4.000000E-01   4.000000E-01   4.000000E-01   4.000000E-01   4.000000E-01   4.000000E-01   4.000000E-01   4.000000E-01   4.000000E-01   4.000000E-01   4.000000E-01   4.000000E-01   4.000000E-01   4.000000E-01   4.000000E-01   4.000000E-01   4.000000E-01   4.000000E-01   4.000000E-01   4.000000E-01   4.000000E-01   4.000000E-01   4.000000E-01   4.000000E-01   4.000000E-01   4.000000E-01   4.000000E-01   4.000000E-01   4.000000E-01   4.000000E-01   4.000000E-01   4.000000E-01   4.000000E-01   4.000000E-01   4.000000E-01   4.000000E-01   4.000000E-01   4.000000E-01   4.000000E-01   4.000000E-01   4.000000E-01   4.000000E-01   4.000000E-01   4.000000E-01   4.000000E-01   4.000000E-01   4.000000E-01   4.000000E-01   4.000000E-01   4.000000E-01   4.000000E-01   4.000000E-01   4.000000E-01   4.000000E-01   4.000000E-01   4.000000E-01   4.000000E-01   4.000000E-01   4.000000E-01   4.000000E-01   4.000000E-01   4.000000E-01   4.000000E-01   4.000000E-01   4.000000E-01   4.000000E-01   4.000000E-01   4.000000E-01   4.000000E-01   4.000000E-01   4.000000E-01   4.000000E-01   4.000000E-01   4.000000E-01   4.000000E-01   4.000000E-01   4.000000E-01   4.000000E-01   4.000000E-01   4.000000E-01   4.000000E-01   4.000000E-01   4.000000E-01   4.000000E-01   4.000000E-01   4.000000E-01   4.000000E-01   4.000000E-01   4.000000E-01   4.000000E-01   4.000000E-01   4.000000E-01   4.000000E-01   4.000000E-01   4.000000E-01   4.000000E-01   4.000000E-01   4.000000E-01   4.000000E-01   4.000000E-01   4.000000E-01   4.000000E-01   4.000000E-01   4.000000E-01   4.000000E-01   4.000000E-01   4.000000E-01   4.000000E-01   4.000000E-01   4.000000E-01   4.000000E-01   4.000000E-01   4.000000E-01   4.000000E-01   4.000000E-01   4.000000E-01   4.000000E-01   4.000000E-01   4.000000E-01   4.000000E-01   4.000000E-01   4.000000E-01   4.000000E-01   4.000000E-01   4.000000E-01   4.000000E-01   4.000000E-01   4.000000E-01   4.000000E-01   4.000000E-01   4.000000E-01   4.000000E-01   4.000000E-01   4.000000E-01   4.000000E-01   4.000000E-01   4.000000E-01   4.000000E-01   4.000000E-01   4.000000E-01   4.000000E-01   4.000000E-01   4.000000E-01   4.000000E-01   4.000000E-01   4.000000E-01   4.000000E-01   4.000000E-01   4.000000E-01   4.000000E-01   4.000000E-01   4.000000E-01   4.000000E-01   4.000000E-01   4.000000E-01   4.000000E-01   4.000000E-01   4.000000E-01   4.000000E-01   4.000000E-01   4.000000E-01   4.000000E-01   4.000000E-01   4.000000E-01   4.000000E-01   4.000000E-01   4.000000E-01   4.000000E-01   4.000000E-01   4.000000E-01   4.000000E-01   4.000000E-01   4.000000E-01   4.000000E-01   4.000000E-01   4.000000E-01   4.000000E-01   4.000000E-01   4.000000E-01   4.000000E-01   4.000000E-01   4.000000E-01   4.000000E-01   4.000000E-01   4.000000E-01   4.000000E-01   4.000000E-01   4.000000E-01   4.000000E-01   4.000000E-01   4.000000E-01   4.000000E-01   4.000000E-01   4.000000E-01   4.000000E-01   4.000000E-01   4.000000E-01   4.000000E-01   4.000000E-01   4.000000E-01   4.000000E-01   4.000000E-01   4.000000E-01   4.000000E-01   4.000000E-01   4.000000E-01   4.000000E-01   4.000000E-01   4.000000E-01   4.000000E-01   4.000000E-01   4.000000E-01   4.000000E-01   4.000000E-01   4.000000E-01   4.000000E-01   4.000000E-01   4.000000E-01   4.000000E-01   4.000000E-01   4.000000E-01   4.000000E-01   4.000000E-01   4.000000E-01   4.000000E-01   4.000000E-01   4.000000E-01   4.000000E-01   4.000000E-01   4.000000E-01   4.000000E-01   4.000000E-01   4.000000E-01   4.000000E-01   4.000000E-01   4.000000E-01   4.000000E-01   4.000000E-01   4.000000E-01   4.000000E-01   4.000000E-01   4.000000E-01   4.000000E-01   4.000000E-01   4.000000E-01   4.000000E-01   4.000000E-01   4.000000E-01   4.000000E-01   4.000000E-01   4.000000E-01   4.000000E-01   4.000000E-01   4.000000E-01   4.000000E-01   4.000000E-01   4.000000E-01   4.000000E-01   4.000000E-01   4.000000E-01   4.000000E-01   4.000000E-01   4.000000E-01   4.000000E-01   4.000000E-01   4.000000E-01   4.000000E-01   4.000000E-01   4.000000E-01   4.000000E-01   4.000000E-01   4.000000E-01   4.000000E-01   4.000000E-01   4.000000E-01   4.000000E-01   4.000000E-01   4.000000E-01   4.000000E-01   4.000000E-01   4.000000E-01   4.000000E-01   4.000000E-01   4.000000E-01   4.000000E-01   4.000000E-01   4.000000E-01   4.000000E-01   4.000000E-01   4.000000E-01   4.000000E-01   4.000000E-01   4.000000E-01   4.000000E-01   4.000000E-01   4.000000E-01   4.000000E-01   4.000000E-01   4.000000E-01   4.000000E-01   4.000000E-01   4.000000E-01   4.000000E-01   4.000000E-01   4.000000E-01   4.000000E-01   4.000000E-01   4.000000E-01   4.000000E-01   4.000000E-01   4.000000E-01   4.000000E-01   4.000000E-01   4.000000E-01   4.000000E-01   4.000000E-01   4.000000E-01   4.000000E-01   4.000000E-01   4.000000E-01   4.000000E-01   4.000000E-01   4.000000E-01   4.000000E-01   4.000000E-01   4.000000E-01   4.000000E-01   4.000000E-01   4.000000E-01   4.000000E-01   4.000000E-01   4.000000E-01   4.000000E-01   4.000000E-01   4.000000E-01   4.000000E-01   4.000000E-01   4.000000E-01   4.000000E-01   4.000000E-01   4.000000E-01   4.000000E-01   4.000000E-01   4.000000E-01   4.000000E-01   4.000000E-01   4.000000E-01   4.000000E-01   4.000000E-01   4.000000E-01   4.000000E-01   4.000000E-01   4.000000E-01   4.000000E-01   4.000000E-01   4.000000E-01   4.000000E-01   4.000000E-01   4.000000E-01   4.000000E-01   4.000000E-01   4.000000E-01   4.000000E-01   4.000000E-01   4.000000E-01   4.000000E-01   4.000000E-01   4.000000E-01   4.000000E-01   4.000000E-01   4.000000E-01   4.000000E-01   4.000000E-01   4.000000E-01   4.000000E-01   4.000000E-01   4.000000E-01   4.000000E-01   4.000000E-01   4.000000E-01   4.000000E-01   4.000000E-01   4.000000E-01   4.000000E-01   4.000000E-01   4.000000E-01   4.000000E-01   4.000000E-01   4.000000E-01   4.000000E-01   4.000000E-01   4.000000E-01   4.000000E-01   4.000000E-01   4.000000E-01   4.000000E-01   4.000000E-01   4.000000E-01   4.000000E-01   4.000000E-01   4.000000E-01   4.000000E-01   4.000000E-01   4.000000E-01   4.000000E-01   4.000000E-01   4.000000E-01   4.000000E-01   4.000000E-01   4.000000E-01   4.000000E-01   4.000000E-01   4.000000E-01   4.000000E-01   4.000000E-01   4.000000E-01   4.000000E-01   4.000000E-01   4.000000E-01   4.000000E-01   4.000000E-01   4.000000E-01   4.000000E-01   4.000000E-01   4.000000E-01   4.000000E-01   4.000000E-01   4.000000E-01   4.000000E-01   4.000000E-01   4.000000E-01   4.000000E-01   4.000000E-01   4.000000E-01   4.000000E-01   4.000000E-01   4.000000E-01   4.000000E-01   4.000000E-01   4.000000E-01   4.000000E-01   4.000000E-01   4.000000E-01   4.000000E-01   4.000000E-01   4.000000E-01   4.000000E-01   4.000000E-01   4.000000E-01   4.000000E-01   4.000000E-01   4.000000E-01   4.000000E-01   4.000000E-01   4.000000E-01   4.000000E-01   4.000000E-01   4.000000E-01   4.000000E-01   4.000000E-01   4.000000E-01   4.000000E-01   4.000000E-01   4.000000E-01   4.000000E-01   4.000000E-01   4.000000E-01   4.000000E-01   4.000000E-01   4.000000E-01   4.000000E-01   4.000000E-01   4.000000E-01   4.000000E-01   4.000000E-01   4.000000E-01   4.000000E-01   4.000000E-01   4.000000E-01   4.000000E-01   4.000000E-01   4.000000E-01   4.000000E-01   4.000000E-01   4.000000E-01   4.000000E-01   4.000000E-01   4.000000E-01   4.000000E-01   4.000000E-01   4.000000E-01   4.000000E-01   4.000000E-01   4.000000E-01   4.000000E-01   4.000000E-01   4.000000E-01   4.000000E-01   4.000000E-01   4.000000E-01   4.000000E-01   4.000000E-01   4.000000E-01   4.000000E-01   4.000000E-01   4.000000E-01   4.000000E-01   4.000000E-01   4.000000E-01   4.000000E-01   4.000000E-01   4.000000E-01   4.000000E-01   4.000000E-01   4.000000E-01   4.000000E-01   4.000000E-01   4.000000E-01   4.000000E-01   4.000000E-01   4.000000E-01   4.000000E-01   4.000000E-01   4.000000E-01   4.000000E-01   4.000000E-01   4.000000E-01   4.000000E-01   4.000000E-01   4.000000E-01   4.000000E-01   4.000000E-01   4.000000E-01   4.000000E-01   4.000000E-01   4.000000E-01   4.000000E-01   4.000000E-01   4.000000E-01   4.000000E-01   4.000000E-01   4.000000E-01   4.000000E-01   4.000000E-01   4.000000E-01   4.000000E-01   4.000000E-01   4.000000E-01   4.000000E-01   4.000000E-01   4.000000E-01   4.000000E-01   4.000000E-01   4.000000E-01   4.000000E-01   4.000000E-01   4.000000E-01   4.000000E-01   4.000000E-01   4.000000E-01   4.000000E-01   4.000000E-01   4.000000E-01   4.000000E-01   4.000000E-01   4.000000E-01   4.000000E-01   4.000000E-01   4.000000E-01   4.000000E-01   4.000000E-01   4.000000E-01   4.000000E-01   4.000000E-01   4.000000E-01   4.000000E-01   4.000000E-01   4.000000E-01   4.000000E-01   4.000000E-01   4.000000E-01   4.000000E-01   4.000000E-01   4.000000E-01   4.000000E-01   4.000000E-01   4.000000E-01   4.000000E-01   4.000000E-01   4.000000E-01   4.000000E-01   4.000000E-01   4.000000E-01   4.000000E-01   4.000000E-01   4.000000E-01   4.000000E-01   4.000000E-01   4.000000E-01   4.000000E-01   4.000000E-01   4.000000E-01   4.000000E-01   4.000000E-01   4.000000E-01   4.000000E-01   4.000000E-01   4.000000E-01   4.000000E-01   4.000000E-01   4.000000E-01   4.000000E-01   4.000000E-01   4.000000E-01   4.000000E-01   4.000000E-01   4.000000E-01   4.000000E-01   4.000000E-01   4.000000E-01   4.000000E-01   4.000000E-01   4.000000E-01   4.000000E-01   4.000000E-01   4.000000E-01   4.000000E-01   4.000000E-01   4.000000E-01   4.000000E-01   4.000000E-01   4.000000E-01   4.000000E-01   4.000000E-01   4.000000E-01   4.000000E-01   4.000000E-01   4.000000E-01   4.000000E-01   4.000000E-01   4.000000E-01   4.000000E-01   4.000000E-01   4.000000E-01   4.000000E-01   4.000000E-01   4.000000E-01   4.000000E-01   4.000000E-01   4.000000E-01   4.000000E-01   4.000000E-01   4.000000E-01   4.000000E-01   4.000000E-01   4.000000E-01   4.000000E-01   4.000000E-01   4.000000E-01   4.000000E-01   4.000000E-01   4.000000E-01   4.000000E-01   4.000000E-01   4.000000E-01   4.000000E-01   4.000000E-01   4.000000E-01   4.000000E-01   4.000000E-01   4.000000E-01   4.000000E-01   4.000000E-01   4.000000E-01   4.000000E-01   4.000000E-01   4.000000E-01   4.000000E-01   4.000000E-01   4.000000E-01   4.000000E-01   4.000000E-01   4.000000E-01   4.000000E-01   4.000000E-01   4.000000E-01   4.000000E-01   4.000000E-01   4.000000E-01   4.000000E-01   4.000000E-01   4.000000E-01   4.000000E-01   4.000000E-01   4.000000E-01   4.000000E-01   4.000000E-01   4.000000E-01   4.000000E-01   4.000000E-01   4.000000E-01   4.000000E-01   4.000000E-01   4.000000E-01   4.000000E-01   4.000000E-01   4.000000E-01   4.000000E-01   4.000000E-01   4.000000E-01   4.000000E-01   4.000000E-01   4.000000E-01   4.000000E-01   4.000000E-01   4.000000E-01   4.000000E-01   4.000000E-01   4.000000E-01   4.000000E-01   4.000000E-01   4.000000E-01   4.000000E-01   4.000000E-01   4.000000E-01   4.000000E-01   4.000000E-01   4.000000E-01   4.000000E-01   4.000000E-01   4.000000E-01   4.000000E-01   4.000000E-01   4.000000E-01   4.000000E-01   4.000000E-01   4.000000E-01   4.000000E-01   4.000000E-01   4.000000E-01   4.000000E-01   4.000000E-01   4.000000E-01   4.000000E-01   4.000000E-01   4.000000E-01   4.000000E-01   4.000000E-01   4.000000E-01   4.000000E-01   4.000000E-01   4.000000E-01   4.000000E-01   4.000000E-01   4.000000E-01   4.000000E-01   4.000000E-01   4.000000E-01   4.000000E-01   4.000000E-01   4.000000E-01   4.000000E-01   4.000000E-01   4.000000E-01   4.000000E-01   4.000000E-01   4.000000E-01   4.000000E-01   4.000000E-01   4.000000E-01   4.000000E-01   4.000000E-01   4.000000E-01   4.000000E-01   4.000000E-01   4.000000E-01   4.000000E-01   4.000000E-01   4.000000E-01   4.000000E-01   4.000000E-01   4.000000E-01   4.000000E-01   4.000000E-01   4.000000E-01   4.000000E-01   4.000000E-01   4.000000E-01   4.000000E-01   4.000000E-01   4.000000E-01   4.000000E-01   4.000000E-01   4.000000E-01   4.000000E-01   4.000000E-01   4.000000E-01   4.000000E-01   4.000000E-01   4.000000E-01   4.000000E-01   4.000000E-01   4.000000E-01   4.000000E-01   4.000000E-01   4.000000E-01   4.000000E-01   4.000000E-01   4.000000E-01   4.000000E-01   4.000000E-01   4.000000E-01   4.000000E-01   4.000000E-01   4.000000E-01   4.000000E-01   4.000000E-01   4.000000E-01   4.000000E-01   4.000000E-01   4.000000E-01   4.000000E-01   4.000000E-01   4.000000E-01   4.000000E-01   4.000000E-01   4.000000E-01   4.000000E-01   4.000000E-01   4.000000E-01   4.000000E-01   4.000000E-01   4.000000E-01   4.000000E-01   4.000000E-01   4.000000E-01   4.000000E-01   4.000000E-01   4.000000E-01   4.000000E-01   4.000000E-01   4.000000E-01   4.000000E-01   4.000000E-01   4.000000E-01   4.000000E-01   4.000000E-01   4.000000E-01   4.000000E-01   4.000000E-01   4.000000E-01   4.000000E-01   4.000000E-01   4.000000E-01   4.000000E-01   4.000000E-01   4.000000E-01   4.000000E-01   4.000000E-01   4.000000E-01   4.000000E-01   4.000000E-01   4.000000E-01   4.000000E-01   4.000000E-01   4.000000E-01   4.000000E-01   4.000000E-01   4.000000E-01   4.000000E-01   4.000000E-01   4.000000E-01   4.000000E-01   4.000000E-01   4.000000E-01   4.000000E-01   4.000000E-01   4.000000E-01   4.000000E-01   4.000000E-01   4.000000E-01   4.000000E-01   4.000000E-01   4.000000E-01   4.000000E-01   4.000000E-01   4.000000E-01   4.000000E-01   4.000000E-01   4.000000E-01   4.000000E-01   4.000000E-01   4.000000E-01   4.000000E-01   4.000000E-01   4.000000E-01   4.000000E-01   4.000000E-01   4.000000E-01   4.000000E-01   4.000000E-01   4.000000E-01   4.000000E-01   4.000000E-01   4.000000E-01   4.000000E-01   4.000000E-01   4.000000E-01   4.000000E-01   4.000000E-01   4.000000E-01   4.000000E-01   4.000000E-01   4.000000E-01   4.000000E-01   4.000000E-01   4.000000E-01   4.000000E-01   